ITEM: TIMESTEP
1000
ITEM: NUMBER OF ATOMS
16383
ITEM: BOX BOUNDS pp pp pp
0.0000000000000000e+00 5.6512000000000000e+01
0.0000000000000000e+00 5.6512000000000000e+01
0.0000000000000000e+00 5.6512000000000000e+01
ITEM: ATOMS id type x y z c_peatom c_satom[1] c_satom[2] c_satom[3] c_satom[4] c_satom[5] c_satom[6] c_coord c_voro[1] c_keatom
1 1 56.2892 56.4821 0.0430285 -4.34699 318138 -493864 45335.7 -179049 -470182 389329 15 11.2482 0.0431607
2 1 1.78513 1.77239 56.5089 -4.40623 155089 175311 -1.37163e+06 211623 -179149 285325 14 10.9736 0.197702
3 1 1.73088 0.0439172 1.74232 -4.43038 253941 314750 835777 -199291 12371.3 222827 13 11.2382 0.0104958
4 1 56.5046 1.82085 1.73125 -4.42088 2912.91 -229412 338306 -422090 28853.2 -32378.3 14 11.04 0.0114025
5 1 3.5516 0.00626875 56.499 -4.41626 476101 -280947 177620 16412.3 -266572 -347987 13 11.0751 0.0194179
6 1 5.32018 1.73001 56.4569 -4.45194 217325 804638 843657 -666692 55008.4 -30855.8 15 11.3052 0.0115651
7 1 5.34183 0.0294643 1.81526 -4.41948 184607 245533 154703 -123136 -131538 -165084 14 11.146 0.0375431
8 1 3.53488 1.72564 1.70482 -4.43661 398535 180615 561228 -299869 -298466 -23481.4 14 11.2173 0.034276
9 1 7.13656 56.4266 56.4261 -4.39821 -195217 -437022 474321 -139031 -79958.8 -229800 16 11.1017 0.0545251
10 1 8.79195 1.61167 56.4953 -4.39099 -713070 -519776 -133755 -556645 107630 109904 14 10.8638 0.108541
11 1 8.73463 56.3889 1.75859 -4.37262 -427195 -564942 -35503.1 -635921 85664.7 439503 13 10.9377 0.0414311
12 1 7.08998 1.69644 1.77863 -4.4254 -198225 -27664 263360 -219738 46623.7 510475 14 11.0036 0.045226
13 1 10.575 56.4322 56.4494 -4.44119 175211 -239778 299340 454278 -388871 133501 15 10.9864 0.000241095
14 1 12.4019 1.63793 56.4384 -4.42615 244650 512313 16060.3 -10179.3 391253 -140876 15 11.1543 0.00850407
15 1 12.341 56.4299 1.71187 -4.42144 432416 142223 -458956 -18078.5 135560 350359 13 11.0549 0.0913895
16 1 10.5238 1.69889 1.68269 -4.42029 759640 387335 -259764 87543.9 -70405.8 690555 14 11.2222 0.0725175
17 1 14.1039 56.4039 56.4156 -4.37559 -871322 -783258 -479221 394768 775787 -23956.4 14 10.7557 0.0483899
18 1 15.8904 1.81831 56.4426 -4.39472 -143474 -387424 -773671 357079 -38088.5 -43997.2 14 10.8013 0.0162332
19 1 15.9687 0.00831889 1.71957 -4.42568 -219202 580214 188996 -104845 631531 119413 15 11.127 0.0399002
20 1 14.1832 1.77334 1.69494 -4.45704 528279 689376 269966 165828 333559 369974 15 11.2351 0.0420417
21 1 17.6263 0.00355626 0.0169091 -4.41492 395687 621044 -230391 110555 314111 414104 12 11.1661 0.0143611
22 1 19.4422 1.83564 0.0506391 -4.39424 -241594 -626983 -27443.6 147793 -174473 -111386 13 10.9143 0.070091
23 1 19.5196 0.0773412 1.72289 -4.42527 195557 47075.2 553924 -246925 -115546 8373.59 14 11.1549 0.0102697
24 1 17.6165 1.77221 1.82233 -4.40025 -608019 -688353 345473 369910 -181658 19781 15 10.8573 0.014609
25 1 21.2151 56.4853 56.4524 -4.39638 -553599 650027 -785882 158507 -320895 11426 14 10.9346 0.0052441
26 1 22.9949 1.88812 56.499 -4.40598 -474607 -101736 -567771 -64678.6 371697 63813.7 14 10.822 0.0286492
27 1 22.9601 0.0216475 1.7629 -4.43129 148519 -454420 87402.9 -111584 103378 124039 15 10.9362 0.0189993
28 1 21.2635 1.76929 1.6942 -4.41878 14395.6 -236488 214024 -440603 19323.2 492001 14 11.0503 0.0804561
29 1 24.7267 0.0854493 56.4923 -4.40089 -615180 61971.4 -654526 -564457 -111468 136502 14 10.8335 0.0201667
30 1 26.5124 1.75553 56.4988 -4.39984 149755 -201083 -320413 116700 -514513 135172 13 10.985 0.00375309
31 1 26.4935 0.043767 1.78911 -4.44196 341471 520581 -102838 55379.9 564087 6890.02 14 11.1357 0.0518353
32 1 24.6575 1.7872 1.75341 -4.44759 306167 133344 341720 -265875 -86019.7 -418751 14 11.1061 0.027956
33 1 28.2009 0.0241415 0.0314897 -4.43003 250436 507394 306618 296148 -186316 -54038.1 14 11.2078 0.042852
34 1 29.924 1.90469 56.5179 -4.41151 -132992 640179 490295 44481.7 130433 -160299 13 11.2546 0.0527353
35 1 29.9475 0.0703074 1.83629 -4.41884 534331 190776 264873 -781772 -146705 73378.3 15 11.241 0.0486456
36 1 28.1586 1.9474 1.77261 -4.41025 451270 732809 137502 59241.5 259841 -476936 14 11.3158 0.0286929
37 1 31.7015 56.4784 56.4516 -4.34989 -980982 -709713 -165367 -1.07165e+06 -52846 -219602 13 10.8427 0.008287
38 1 33.4621 1.67431 56.5049 -4.41131 106709 -601345 -359320 -628642 184570 -113744 14 10.9005 0.0838573
39 1 33.6677 56.5031 1.74952 -4.42478 205490 -359263 126026 44688.6 381468 25685.9 16 11.0168 0.0318729
40 1 31.7572 1.71667 1.75389 -4.38713 212823 -53704.7 -147907 -801437 399460 988818 14 11.1043 0.0116271
41 1 35.3749 0.00258607 0.0320909 -4.4293 -377849 -70721.5 -868540 148357 225046 -41595.8 15 10.7488 0.0566346
42 1 37.0728 1.7993 56.4757 -4.38215 116013 -420372 -1.08104e+06 126367 393942 935227 14 10.8473 0.0503986
43 1 37.1257 0.102059 1.77089 -4.42039 -367158 -679916 -400451 110217 51465.5 200524 14 10.7676 0.0941101
44 1 35.3499 1.78293 1.7406 -4.42796 123100 -385406 -426437 20155.6 -65831.6 -36971.8 14 10.8577 0.0251224
45 1 38.9458 0.0671435 56.4274 -4.39309 -274366 -588613 -555770 -78921.7 221028 427131 13 10.7841 0.0120957
46 1 40.6486 1.79599 56.4417 -4.39838 -979474 -728056 345575 -289176 -187128 -131556 15 10.8231 0.057189
47 1 40.6735 56.5042 1.73215 -4.42708 47582.1 15809.4 -561015 160189 -86903.5 81247.5 14 10.8953 0.0168714
48 1 38.9054 1.74853 1.68355 -4.4367 372430 -235279 70102.7 -304063 137685 304637 14 11.0061 0.0201497
49 1 42.3534 0.0616297 56.4656 -4.43917 176921 142003 192743 257802 291280 -91764.2 14 11.068 0.0257602
50 1 44.2514 1.78139 56.4359 -4.45252 843476 624559 288484 25533.7 -374674 -556582 15 11.3341 0.0690275
51 1 44.1142 56.487 1.7941 -4.43675 68680 -373114 291052 -327842 143495 -484048 15 10.9675 0.0062036
52 1 42.4943 1.84436 1.812 -4.38759 -488590 29193.8 -38389.6 -58851.4 -6406.03 -247024 14 11.0263 0.0401069
53 1 45.9062 56.3968 56.5262 -4.41316 -417097 -357821 -397024 -242573 -228000 -619999 14 10.8528 0.109752
54 1 47.5681 1.62111 56.4283 -4.40158 280219 -95145.8 -509512 -52180.1 -357083 -227762 16 11.0353 0.0321746
55 1 47.7283 56.4826 1.72375 -4.41899 591743 -371706 -516689 56969.9 -349159 -558933 14 10.9472 0.0173906
56 1 45.8762 1.68875 1.73209 -4.37331 -1.49253e+06 -52905 -300513 422763 3077.13 -256302 13 10.772 0.0486964
57 1 49.5174 56.4707 56.4688 -4.46278 303869 338907 536594 -69981 526958 -150575 16 11.1452 0.00573046
58 1 51.216 1.77224 56.4964 -4.42107 -428932 232556 -128523 -237896 170050 332663 14 10.9621 0.069868
59 1 51.3477 56.3976 1.73347 -4.41086 -275650 -551208 9038.84 -41375.8 646081 279049 14 10.9059 0.0151237
60 1 49.5063 1.68523 1.76386 -4.42071 712793 -107851 143694 227358 426080 -32818.8 15 11.1874 0.0262526
61 1 52.9857 56.482 56.4556 -4.43089 -214890 -264.006 -347224 -186071 150055 114809 14 10.8741 0.0258257
62 1 54.7117 1.84559 56.4583 -4.42933 -6105.13 136970 329597 635202 -232810 -126161 15 11.0854 0.0384552
63 1 54.6301 56.5101 1.82817 -4.43878 154428 626634 38477.5 115137 324580 -342938 14 11.1275 0.01885
64 1 52.9573 1.78409 1.76456 -4.44265 52972.8 370374 630706 339786 11441.8 -82474.7 14 11.1604 0.0452311
65 1 0.0359877 3.61613 56.4811 -4.41088 -56082.6 -176471 -499803 -363380 -253089 -313993 14 10.9025 0.0239771
66 1 1.80266 5.23802 0.0922686 -4.4041 -682955 -436410 125015 -27002.9 -8544.06 47112.9 14 10.862 0.0149846
67 1 1.637 3.48822 1.73383 -4.34043 -747516 -912232 -913745 -179647 214372 311251 15 10.801 0.10165
68 1 56.5045 5.25556 1.72555 -4.39826 -872140 -1.13949e+06 -358903 632479 331180 147673 16 10.601 0.00966785
69 1 3.52596 3.54208 56.4982 -4.42286 -318681 -329908 -12070.4 -198706 -468208 -287475 14 10.8812 0.0417203
70 1 5.35087 5.12025 56.4378 -4.40107 202952 -407116 -345700 115115 -10871 -509930 14 10.9542 0.0478601
71 1 5.2896 3.47515 1.77523 -4.44462 244529 715379 388058 120277 195597 338768 15 11.2395 0.0698241
72 1 3.56763 5.26269 1.74943 -4.43235 616472 694021 244159 -91730.5 -326530 65059.1 13 11.2861 0.00228524
73 1 7.0544 3.41303 56.4825 -4.42721 -234800 303336 621856 62102.1 11668 82695.1 14 11.2082 0.147469
74 1 8.80419 5.21008 56.5022 -4.40609 156947 -229368 -136452 708467 -1410.03 -363843 13 11.007 0.040055
75 1 8.73217 3.5586 1.8629 -4.40846 -230305 -46037.2 54230.3 90550.1 275274 406932 15 10.9953 0.0265275
76 1 7.09236 5.31434 1.7899 -4.42093 27481 61490.6 815486 775567 132553 365223 13 11.1822 0.0205928
77 1 10.4283 3.44931 0.0202205 -4.38333 28383.5 -251891 -513680 390554 -764059 231182 14 11.0043 0.0652194
78 1 12.4172 5.22328 0.0251765 -4.36935 -239646 -676284 -1.13232e+06 714191 -114928 91312.4 13 10.7715 0.0793109
79 1 12.3363 3.50061 1.64481 -4.42005 297726 219491 138636 20770.2 559306 593862 13 11.13 0.00447635
80 1 10.5571 5.26538 1.76922 -4.42988 532617 96945.5 390821 531281 68140 381271 14 11.189 0.0155297
81 1 14.1243 3.51456 56.5108 -4.37237 -275484 -991639 -807955 757724 383429 -338637 12 10.713 0.0312042
82 1 15.9616 5.36956 0.0742644 -4.42461 392569 434772 -142867 -73185.9 332122 -218274 14 11.1899 0.093262
83 1 16.0378 3.47271 1.74018 -4.40451 -182135 -279808 437977 703108 -96346.5 -51647.8 15 11.0502 0.0211539
84 1 14.1881 5.18521 1.68639 -4.40153 -215856 -186505 -673461 106207 227576 -410619 14 10.8499 0.038755
85 1 17.7592 3.50602 56.5052 -4.40929 -543450 -70312.4 -303045 475913 -251958 -388676 13 10.8995 0.0952954
86 1 19.4208 5.38175 0.0188057 -4.40578 -888948 73590 -827972 -22679.7 -596058 -445766 16 10.8012 0.117866
87 1 19.3569 3.5776 1.80326 -4.39728 66065.8 -743121 -465554 229056 -436137 -721772 15 10.8769 0.0392411
88 1 17.7428 5.29195 1.70091 -4.38412 -772804 -89924.4 -212006 173046 -335152 -132750 14 10.9382 0.0532691
89 1 21.1137 3.54258 56.5052 -4.4279 -118088 -203227 175546 -410496 -53393.8 -115046 13 10.9858 0.0755635
90 1 22.8762 5.32954 0.0275975 -4.43323 -85409.9 274911 -3220.11 476178 -156139 39947.3 16 11.0487 0.051048
91 1 22.9129 3.58091 1.77447 -4.42279 477055 -438568 18314.3 -106831 -133287 -682396 13 11.0078 0.0184813
92 1 21.1367 5.32254 1.69175 -4.39028 -981552 -293121 -745683 533149 234356 -255783 14 10.6824 0.0068615
93 1 24.6803 3.59623 56.4319 -4.41262 -315894 12898.2 -34689.5 -548979 37048.4 -110410 14 10.963 0.0127476
94 1 26.4493 5.35319 56.4711 -4.41543 -35288 -651674 771269 187588 235840 -241882 13 11.0327 0.0323722
95 1 26.3507 3.61693 1.77753 -4.4096 -57721.1 -23245.8 86092.1 350110 258653 -363342 16 11.112 0.086246
96 1 24.6755 5.37214 1.79386 -4.39803 -550864 -168471 -326980 402449 132783 12589.5 12 10.8483 0.0290753
97 1 28.3217 3.67901 56.496 -4.41678 168451 -34721.7 478730 371804 -476468 265172 15 11.1379 0.0083543
98 1 30.0231 5.41098 56.4998 -4.41929 177722 -684495 -185226 -517955 -192428 282166 14 10.8556 0.00809886
99 1 30.0627 3.68957 1.72846 -4.39626 -348670 427392 -835063 -145841 400979 -325011 14 10.9363 0.036814
100 1 28.199 5.35828 1.83003 -4.40543 205936 -725831 -504825 264762 -274523 -254521 14 10.8638 0.0481069
101 1 31.7005 3.57172 0.0553676 -4.41322 -472472 176274 -444566 -341573 583456 -214324 15 10.8603 0.00171452
102 1 33.5753 5.22582 0.00693737 -4.40992 304322 41041 28272.3 -15512.9 35753.5 -76873 14 11.1357 0.0442124
103 1 33.417 3.47408 1.78616 -4.43477 283549 444509 602668 -190613 -88173 526318 16 11.2471 0.00626008
104 1 31.8415 5.38543 1.74885 -4.44175 47998.7 -184083 83630 -219741 280835 -187129 16 10.9368 0.00036777
105 1 35.1642 3.40192 56.4722 -4.37161 -457257 -41300.4 -208262 500478 -409801 333377 16 11.001 0.0104553
106 1 37.0175 5.3729 0.0361971 -4.39097 257453 -188691 -560620 195806 -248969 157297 13 11.0111 0.048615
107 1 37.1385 3.60593 1.73073 -4.42725 -882.379 -84645.5 323736 -36738.3 571612 270185 14 11.0594 0.0192297
108 1 35.3078 5.19643 1.82895 -4.4161 816042 425527 273913 332235 -34730.4 807816 16 11.364 0.0305158
109 1 39.0353 3.62372 0.161173 -4.33892 -478209 -631396 -751925 -373501 -466035 230338 15 10.864 0.00923731
110 1 40.6849 5.29027 0.0468249 -4.41945 -384564 -722306 229613 -465921 -162711 76479.2 15 10.8446 0.0207874
111 1 40.6752 3.56712 1.77722 -4.36408 -315492 -169784 -1.4378e+06 16612.8 -940002 178702 14 10.7564 0.0101846
112 1 38.7945 5.36932 1.80777 -4.38884 -401299 -718924 -823542 -149907 -70211.6 -558208 16 10.6927 0.0042593
113 1 42.3345 3.50381 56.4193 -4.41928 41093.8 223353 649360 -314594 -232684 -91542 15 11.2004 0.00268767
114 1 44.087 5.26748 56.496 -4.41979 213160 708510 94472.5 50464.2 466751 -32215.9 15 11.2235 0.057274
115 1 44.2902 3.4087 1.70952 -4.371 -183306 -863256 272689 -18971 362984 171554 14 11.0032 0.0244296
116 1 42.5129 5.30957 1.75739 -4.4239 157519 1.09618e+06 -213001 32520.6 212579 140370 16 11.2087 0.0178876
117 1 46.0228 3.55917 56.4631 -4.38468 -724367 -483479 -897862 -393615 424594 -35575.8 14 10.6799 0.0317784
118 1 47.7305 5.24979 0.0580221 -4.36348 -1.0968e+06 -209457 -46461.2 -308000 30446.5 -315539 13 10.9141 0.017875
119 1 47.7142 3.33807 1.69934 -4.38469 -485825 160704 -761536 -210664 158798 639485 15 10.9748 0.131297
120 1 45.9561 5.29936 1.62979 -4.41442 210760 850431 96178.2 -176243 570259 -265189 14 11.2697 0.0464789
121 1 49.4161 3.54818 0.0790809 -4.37993 -221224 11407.6 -782285 726565 859319 -544273 15 10.955 0.0227207
122 1 51.2546 5.40369 56.5001 -4.44369 106301 142140 -222807 100116 431012 -181312 14 10.9703 0.0409124
123 1 51.3226 3.61448 1.76547 -4.4357 254316 486818 837006 345399 184208 -189508 15 11.3082 0.0272023
124 1 49.4784 5.23841 1.69592 -4.38945 94920.5 110620 -152686 74032.6 -451264 -550577 13 11.0917 0.00259602
125 1 52.9576 3.51201 56.4422 -4.38808 -905462 -314145 -17469 -315464 201194 -288422 12 10.8183 0.00688587
126 1 54.6072 5.25426 56.4762 -4.43754 586857 -167931 -125899 -340126 140778 -104413 16 11.0447 0.03117
127 1 54.7234 3.58457 1.72742 -4.44777 115459 -235025 -203402 5719.35 417619 -38942 16 10.8867 0.00657075
128 1 53.0162 5.35612 1.79519 -4.37663 -1.0282e+06 -621736 -894009 -116696 -218901 -204929 14 10.6115 0.0241051
129 1 0.0263955 6.99386 -0.00194676 -4.3815 -918263 313256 -1.22103e+06 30787.2 -286573 -358088 14 10.8131 0.112385
130 1 1.69943 8.80954 56.4575 -4.3912 1.02809e+06 -412547 -494444 -194299 78591.8 454008 14 11.1912 0.122607
131 1 1.6706 7.11968 1.6782 -4.39091 -174972 -215413 -453536 314565 -590240 -92251.6 15 10.9479 0.0143365
132 1 56.5024 8.78165 1.79931 -4.37757 -422146 -839999 -88301.4 794148 -379296 438631 13 10.8541 0.0192353
133 1 3.63886 6.98091 56.4626 -4.42496 751716 468078 -343554 -182429 -418443 -430905 15 11.1814 0.026084
134 1 5.45185 8.77204 0.00774656 -4.3421 -960298 -730178 -1.18707e+06 118610 893636 -208532 12 10.6411 0.0385341
135 1 5.34783 6.96732 1.66223 -4.39478 -460689 236462 447962 654595 -61332.4 576873 15 11.1346 0.0149171
136 1 3.65267 8.71156 1.70746 -4.39537 404779 -474487 276056 -358474 254151 531192 13 11.1453 0.0434066
137 1 7.10429 7.03086 0.0108195 -4.38656 -464120 -226824 -988467 794840 423630 100714 13 10.7442 0.014834
138 1 8.9853 8.85188 56.5007 -4.40647 305840 297506 -674694 -96789.7 434068 -481898 15 11.0292 0.0215821
139 1 8.88386 7.01749 1.72144 -4.43398 -412885 -427377 383124 249666 -485032 -115022 14 10.9329 0.100192
140 1 7.20239 8.81939 1.68437 -4.41293 -490820 -343056 -452190 16342.7 -685457 -358488 14 10.7999 0.0221054
141 1 10.7397 7.06996 56.5172 -4.43922 312724 280268 290411 127613 483272 60022.6 15 11.2102 0.120868
142 1 12.4464 8.82356 0.0228781 -4.42983 200728 -392646 651755 51864.2 151443 -283512 15 11.1209 0.0441832
143 1 12.529 7.01744 1.77153 -4.38698 -156017 831149 -833995 73170.1 196490 355402 14 11.099 0.024049
144 1 10.5928 8.80876 1.78803 -4.40471 217251 37495.9 -618360 -526611 -200210 99474.8 13 11.0094 0.0780552
145 1 14.1058 7.11993 0.0815362 -4.37841 -881126 158.418 -731698 418511 190292 80510.6 15 10.8309 0.0605637
146 1 15.8433 8.92258 0.0154739 -4.41741 -786024 -399215 -352385 -260622 318577 81118.8 15 10.7467 0.0663202
147 1 15.8396 7.13439 1.75376 -4.41403 248913 -233454 -119853 268048 -57276.7 -606393 16 11.0409 0.0220555
148 1 14.2073 8.86729 1.79324 -4.36225 -1.41385e+06 -389840 -362233 -617.709 -540231 -270607 14 10.7357 0.00246362
149 1 17.6953 7.14291 0.069755 -4.42284 -30331 -751684 -362301 -328101 -42818.5 -115362 14 10.7802 0.0399672
150 1 19.4528 8.81952 0.0500165 -4.43046 79251.5 116429 -236258 -293990 74378 -155010 14 10.9907 0.0488253
151 1 19.4896 7.0438 1.78248 -4.39655 -713950 -777147 -899701 96884.4 -145682 -170961 14 10.6022 0.0446688
152 1 17.644 8.84552 1.81159 -4.43993 277828 -288116 -145017 24376.8 41098.5 111609 15 10.9443 0.0469686
153 1 21.2413 7.09873 0.0240339 -4.4198 -247873 -786822 62889.8 98585.1 136597 28224.5 13 10.8042 0.0112
154 1 22.9604 8.80344 0.0783976 -4.42436 -287036 47421.4 -280988 -422398 64013.5 36107.8 13 10.9191 0.0759118
155 1 22.9363 7.11321 1.82964 -4.42419 52053.4 -586066 -141662 436822 31133.1 443639 14 10.923 0.100961
156 1 21.2148 8.8412 1.81632 -4.44686 -314117 -209874 101001 126943 221957 137838 14 10.9016 0.0975154
157 1 24.7952 7.05681 56.4847 -4.42614 197733 216574 583944 478022 -424717 684939 14 11.2296 0.032485
158 1 26.4932 8.84186 56.4115 -4.41285 -550696 -321938 461931 143230 -125433 360882 15 10.978 0.0603243
159 1 26.4876 7.10693 1.74242 -4.38585 -1.27993e+06 250967 -1.05857e+06 -172132 235877 -321708 14 10.7059 0.0652761
160 1 24.6927 8.93809 1.79805 -4.41533 -399929 253093 -3827.35 43415.8 -1.05931e+06 192881 14 11.0605 0.104554
161 1 28.0928 7.12026 56.5139 -4.4082 -405335 -325176 -283834 318724 558155 -154897 16 10.8592 0.0158084
162 1 29.9795 8.90391 56.4684 -4.4523 610982 160876 402943 185643 294021 -216486 16 11.1884 0.0389524
163 1 29.9777 7.11558 1.69999 -4.43448 94581.9 27111.2 -253431 -257756 629096 112698 16 10.9832 0.0631543
164 1 28.1773 8.86862 1.78286 -4.43178 -188175 -237825 -132802 -126445 -30430.2 -55019.3 14 10.8675 0.0189648
165 1 31.725 7.16716 0.0466075 -4.41945 134795 176594 -80134 -302195 558655 276021 14 11.0627 0.012329
166 1 33.5961 8.86403 56.4639 -4.4072 -305032 -385674 -767336 8335.71 -510954 -361696 15 10.784 0.0260141
167 1 33.5672 7.15814 1.81414 -4.41314 -636503 243439 176176 -525555 -174330 2746.52 15 11.0191 0.0260159
168 1 31.7584 8.79869 1.90257 -4.39194 -2454.96 -694940 -55778.8 167302 -205964 -295643 15 10.9583 0.0311367
169 1 35.2825 7.04434 56.5164 -4.41824 -366337 -21235.2 -304397 507569 -432055 11654.9 14 10.935 0.111521
170 1 37.0824 8.87941 0.0585542 -4.36275 -658798 -1.09873e+06 -629143 968138 185005 -727003 14 10.7141 0.0405272
171 1 37.0801 7.10179 1.73201 -4.41269 58764.1 -542590 -1.03626e+06 285121 53507.8 -908223 15 10.7715 0.0622414
172 1 35.2439 8.85098 1.75104 -4.35522 -1.12187e+06 -1.67795e+06 -983731 -59850.5 -89086.8 758662 15 10.4479 0.0379491
173 1 38.8495 7.01921 0.0403483 -4.4224 -300235 -245144 -609287 -256910 171281 -234540 15 10.8263 0.104013
174 1 40.5863 8.81446 0.123399 -4.38283 -723605 -197876 83351.9 -33251 149492 220172 13 10.9655 0.0372305
175 1 40.6969 7.04721 1.77631 -4.39906 -255591 -1.0369e+06 -834953 -157757 -300032 217195 14 10.6584 0.0579452
176 1 38.894 8.78977 1.75602 -4.42358 -466361 -117863 -626955 95094.2 500303 319428 16 10.7737 0.0396844
177 1 42.4134 7.10077 56.4405 -4.45011 704797 477255 573443 246856 308843 -309543 15 11.3134 0.0393736
178 1 44.2426 8.94427 0.0249098 -4.3825 -178072 -390452 -434891 54673.5 465989 19183.7 14 10.9131 0.0410616
179 1 44.2923 7.20074 1.7983 -4.42725 782244 470503 576302 -42580 288028 261653 15 11.3595 0.0110395
180 1 42.3583 8.80351 1.73456 -4.4041 -245205 -218179 -329005 -574189 -35921.3 397857 14 10.896 0.0368432
181 1 45.8545 7.10908 56.4353 -4.40539 758501 150141 266835 31477.6 83390.3 308293 14 11.315 0.0391406
182 1 47.6408 8.84752 0.0559533 -4.43195 395137 907697 -127216 -55275 297556 101680 15 11.2182 0.0236117
183 1 47.7264 7.10045 1.86573 -4.40616 350591 181827 -84284.9 -102531 173379 235095 15 11.1655 0.0286334
184 1 46.0123 8.92444 1.77934 -4.41141 -402899 338056 170241 -322621 7929.59 427423 15 11.0614 0.0297697
185 1 49.4296 7.02973 56.4564 -4.41016 -299205 427794 -135183 75419.5 -483505 62115.2 14 11.0511 0.0607398
186 1 51.1171 8.9493 0.0368465 -4.4032 -380258 288572 -245649 27645.3 313401 -83046.6 14 10.9915 0.0434657
187 1 51.1759 7.04224 1.82241 -4.42308 -108776 -88758.4 -164212 -225989 131288 190425 15 10.9964 0.108239
188 1 49.4564 8.8842 1.7156 -4.42775 -348482 373525 366776 131153 681438 -56616.7 16 11.0752 0.0232429
189 1 52.9407 7.17611 0.0780092 -4.4182 23470.9 -257502 1726.52 -786020 183234 417655 14 10.9949 0.0734417
190 1 54.7237 8.76743 0.0897503 -4.41446 582420 37055.3 168881 -565516 -294744 -71452.2 13 11.1869 0.0233443
191 1 54.8665 6.97805 1.71199 -4.37528 -363880 -805732 -472960 -282455 74458.8 911546 15 10.8672 0.055029
192 1 52.9349 8.83877 1.89864 -4.42621 827366 114696 226418 -309946 261758 197203 15 11.2341 0.0158045
193 1 56.5028 10.6377 0.0837005 -4.42131 215272 -126608 -291677 236498 259961 -300630 14 10.9525 0.0248837
194 1 1.78614 12.4062 0.025999 -4.38883 166121 -1.12266e+06 -1.00759e+06 185277 -18242.2 -90149.9 15 10.6943 0.0231698
195 1 1.89069 10.6077 1.75227 -4.45171 449566 726168 260766 -190703 -153039 -44425.4 16 11.2533 0.0418677
196 1 0.00716596 12.3392 1.7419 -4.41695 158341 -373811 -932977 45038.4 -3189.72 -129671 14 10.7711 0.0197201
197 1 3.6422 10.592 0.0477638 -4.40404 -158199 780595 -735901 -5043.84 -227843 103686 14 11.0306 0.0218127
198 1 5.28378 12.4765 56.4828 -4.35779 -630198 -413976 -971514 -51227.2 -497986 625915 14 10.7968 0.0415051
199 1 5.32569 10.4326 1.72197 -4.37783 -444495 -171589 -941489 -250326 -274521 -398724 16 10.8117 0.0193727
200 1 3.59818 12.3648 1.75242 -4.43987 378946 226909 18799.2 -302960 156126 -300024 15 11.0889 0.0172119
201 1 7.03131 10.6392 56.4325 -4.43561 240880 -71982.7 -273217 -644863 140428 277065 14 11.01 0.0818044
202 1 8.91194 12.3356 56.3959 -4.38318 -410316 -362553 -338365 237882 -369757 -138898 15 10.9085 0.0446313
203 1 8.79163 10.6116 1.72753 -4.41224 -14466.7 -771456 -120898 -482792 391655 -693122 14 10.8624 0.0339747
204 1 7.04053 12.3547 1.71443 -4.44721 182560 451239 212423 255985 -139602 -229960 15 11.1591 0.0870382
205 1 10.6314 10.6942 0.0170958 -4.41514 6731.25 -41249.8 500140 109799 57513.5 -263811 13 11.1133 0.00560306
206 1 12.3719 12.4613 56.4891 -4.41772 99193.5 163755 253435 -553256 -330087 26643.3 14 11.1337 0.03789
207 1 12.3506 10.535 1.82832 -4.40822 418487 585.537 -126755 -200366 328209 -102907 13 11.1468 0.0996369
208 1 10.5374 12.3758 1.73633 -4.43461 271759 732265 225496 -173554 157392 -437605 15 11.2631 0.0567042
209 1 14.1428 10.617 56.497 -4.43396 311722 -313308 -59878.2 228652 -73338.4 -197313 15 10.9617 0.0140683
210 1 15.9624 12.3934 0.0934274 -4.43334 -216057 -101681 655042 612971 184122 8683.75 15 11.0571 0.0434445
211 1 15.8704 10.569 1.8462 -4.3829 -784061 -739497 -935119 -196137 347009 109565 14 10.6121 0.0136186
212 1 14.1044 12.321 1.70572 -4.42346 264435 342391 -145466 108781 54453.6 292252 14 11.1187 0.0629094
213 1 17.5424 10.6169 0.153009 -4.40019 -118928 -158800 137806 43610.9 314628 94981.3 15 11.058 0.040001
214 1 19.3879 12.4323 0.127455 -4.38902 -422054 -641710 -479055 245731 -634306 -496710 16 10.813 0.0303906
215 1 19.4573 10.5958 1.80717 -4.46118 309593 321060 572223 -205305 -62530.6 164206 14 11.1703 0.0469639
216 1 17.6663 12.4267 1.88611 -4.40262 -223879 -546744 -783434 73004 233889 -398447 13 10.75 0.0344385
217 1 21.2389 10.6687 0.0830907 -4.41604 37710 86842.3 -216588 -360922 -155479 -835095 15 11.0076 0.00950609
218 1 22.8754 12.4386 56.4239 -4.40825 -611597 -68094.9 186987 -75926.1 610767 393633 15 10.9867 0.0526551
219 1 22.9632 10.6421 1.78218 -4.41609 -838830 607089 -111485 460020 254247 -336438 12 11.0006 0.103058
220 1 21.1714 12.3788 1.71732 -4.40067 -143087 -539330 -799834 48740.1 -253748 -185790 12 10.7576 0.0101093
221 1 24.6692 10.6313 0.0142338 -4.44714 498571 341974 156451 -426171 246745 134426 14 11.137 0.019535
222 1 26.4098 12.3537 56.4012 -4.39482 -923654 -51762.1 -320651 91991.8 720481 -128351 14 10.8757 0.126997
223 1 26.4752 10.6521 1.77462 -4.41192 -336277 299905 193295 140757 -403060 620027 13 11.0743 0.0140218
224 1 24.7977 12.4499 1.74443 -4.4271 636705 403712 859319 -292944 499057 112007 14 11.409 0.0155325
225 1 28.1496 10.6149 56.4951 -4.43804 398305 -195793 509356 -64375 32431 124601 16 11.1067 0.0140117
226 1 30.1094 12.2236 56.4641 -4.39365 -357980 179453 -127737 763120 458824 135856 15 11.0595 0.0413848
227 1 30.0227 10.5637 1.73632 -4.41671 341063 -729680 -425678 169243 8971.35 3179.66 13 10.8279 0.00620512
228 1 28.3278 12.3245 1.71752 -4.43385 597829 -294990 229614 119803 -73562 292881 15 11.0891 0.0343329
229 1 31.7859 10.6106 56.477 -4.37156 -639737 -1.10949e+06 81637.7 333867 43729.3 -421027 14 10.8527 0.0867597
230 1 33.6055 12.2054 56.4463 -4.4156 -172122 986913 -143086 -368156 -376342 -37305.7 15 11.1835 0.0258708
231 1 33.5823 10.5075 1.7756 -4.42296 -136446 -482156 132576 755444 -40185.3 241927 14 10.9312 0.027481
232 1 31.8406 12.2675 1.81506 -4.43904 344014 157916 403844 -5574.82 -66603.8 -486859 14 11.1374 0.00454762
233 1 35.4421 10.4771 0.0967298 -4.31585 -1.14491e+06 -1.36819e+06 -818026 789995 4058.71 328217 15 10.6227 0.00113756
234 1 37.1191 12.3875 56.4557 -4.44774 -248594 306886 207118 41111.6 -160830 -218579 14 11.0375 0.0897048
235 1 37.1093 10.4804 1.76765 -4.38356 -438107 -580543 -727460 -273546 -447275 -1.17985e+06 15 10.7864 0.0207676
236 1 35.3439 12.31 1.68478 -4.44905 372831 350445 350172 15676.2 -94724.4 -155697 15 11.1525 0.0195735
237 1 38.9097 10.588 0.0423228 -4.41814 406016 -484777 -426841 27211.4 461037 -554612 15 10.9301 0.0254556
238 1 40.6277 12.4023 56.4698 -4.41673 -153264 -336096 257877 458804 249493 -193589 14 10.9665 0.0254206
239 1 40.6021 10.6783 1.85539 -4.43768 -119560 610866 -45573.5 292339 -176623 -308137 16 11.0509 0.0266524
240 1 38.7695 12.2611 1.75064 -4.39617 -123453 355173 -5786.61 192013 282395 -312575 14 11.105 0.0052316
241 1 42.2894 10.5385 0.0388802 -4.42904 423196 119733 47860.3 -6093.02 -468170 -37781.9 15 11.1242 0.0239056
242 1 44.0896 12.4106 56.5132 -4.42193 -264562 196058 79036.9 917028 477713 160136 15 11.1323 0.186663
243 1 44.0904 10.5721 1.78272 -4.41237 -259843 383100 -281585 201048 607729 -219193 14 11.0197 0.0495401
244 1 42.4484 12.3983 1.72498 -4.41448 -35879.7 63255 97167.4 4765.05 84648.9 81774.9 14 11.0374 0.0151397
245 1 45.8552 10.7128 0.140613 -4.38846 -193160 -433955 -253551 -412840 130328 -217767 14 10.9132 0.0219303
246 1 47.6477 12.476 0.113792 -4.41797 162133 -224986 642848 600121 366754 -383919 14 11.1552 0.0287326
247 1 47.7969 10.6332 1.84777 -4.44364 242944 -443770 556613 81182.1 482.955 163529 15 11.0418 0.0337358
248 1 45.9433 12.383 1.81919 -4.36679 536899 -760561 -1.60202e+06 -226212 256251 -8968.17 15 10.8033 0.0637467
249 1 49.4763 10.7498 56.5006 -4.39368 -208904 -452236 -729433 185786 -94731.6 -143632 14 10.7912 0.0079075
250 1 51.2557 12.4158 0.0521733 -4.39701 -1.11523e+06 -769031 -770106 102272 238389 -277424 14 10.526 0.00142563
251 1 51.2206 10.6475 1.85794 -4.39762 -787045 -105281 -247898 739340 470912 -218382 13 10.837 0.0340672
252 1 49.6001 12.3471 1.81037 -4.39729 -186646 -129845 34005 44629.3 408754 -208577 14 11.0391 0.0359959
253 1 52.8929 10.6353 0.112984 -4.42155 52341.5 271673 445641 -236357 119343 265461 14 11.1825 0.0181917
254 1 54.6938 12.33 0.0632253 -4.43361 -289171 561791 -123531 -40058.4 -278671 -565349 16 11.0216 0.0263001
255 1 54.7726 10.4957 1.85023 -4.40556 185814 194180 -2450.14 -83070.5 -437455 -244652 12 11.1357 0.0467486
256 1 53.0256 12.4475 1.81707 -4.42483 -5742.49 455121 -195887 -101216 -296852 -771838 16 11.121 0.105474
257 1 0.0405691 14.1006 0.0570021 -4.39189 -1.2404e+06 -147586 -794427 506394 477809 -60223 14 10.6346 0.00542136
258 1 1.74373 15.9065 56.4779 -4.43049 15546.7 -77322 -166280 -235023 -209197 46014.6 13 10.9369 0.033537
259 1 1.79615 14.1472 1.72921 -4.43921 131056 -230056 229312 223816 -583650 -56597.2 14 11.0081 0.0437432
260 1 0.0700178 15.8391 1.82483 -4.42454 -392644 89518.7 179500 -251796 264030 -134032 13 11.0209 0.0837876
261 1 3.57297 14.1936 56.4138 -4.39018 -682924 -619060 -435803 56741.8 -141806 -76398 13 10.7493 0.0192578
262 1 5.31563 15.8693 56.4228 -4.41775 -288532 -54599.5 -692910 37404.2 248155 79542.1 15 10.8469 0.0699998
263 1 5.3843 14.1933 1.73181 -4.41332 -603012 -6267.85 108401 -265144 -136677 -139621 15 10.951 0.0372348
264 1 3.57609 15.8804 1.73082 -4.41884 225603 -499603 395306 -740506 103064 337059 14 11.0216 0.0118558
265 1 7.08292 14.1675 56.4482 -4.42881 -271534 109025 -335982 25162.2 -421694 -188550 14 10.9669 0.114024
266 1 8.80525 16.0184 56.4633 -4.40106 -412233 -147053 1.11517e+06 215668 418.549 130517 15 11.2018 0.0132569
267 1 8.75261 14.1324 1.79085 -4.43537 -25221.5 349739 758572 243047 -399240 -102991 14 11.2281 0.0518519
268 1 7.05519 15.862 1.68584 -4.40475 -244910 -472017 547797 186675 -39182.7 -538972 15 11.0656 0.0789072
269 1 10.5366 14.2179 56.4481 -4.44547 1.11299e+06 716027 593793 43427.2 -324380 -103621 14 11.4613 0.0432899
270 1 12.4896 15.9523 56.5051 -4.41287 298848 -196559 -400442 62915.5 -436683 -361131 15 10.9846 0.0338991
271 1 12.3726 14.1733 1.79457 -4.42444 -154859 -313989 313150 82699.9 169130 -279204 14 11.0109 0.0607491
272 1 10.6297 15.8461 1.80624 -4.35942 -87266.8 -727255 -847712 -200485 -15697.2 658962 14 10.8923 0.0711924
273 1 14.1706 14.0801 0.0738058 -4.41005 -256782 -254468 107881 -266358 -136690 290779 14 10.9423 0.0297769
274 1 15.8511 15.8958 0.0821155 -4.43602 38169.1 331898 314769 44616.3 -403763 72624.1 14 11.1351 0.0480327
275 1 15.9417 14.1451 1.87059 -4.43947 -2780.52 138247 36676.9 468902 -438293 38303.3 14 11.0475 0.0974651
276 1 14.0852 15.8594 1.79967 -4.4025 -862090 -150989 -866890 -149458 123113 -74432.4 14 10.7076 0.0660183
277 1 17.7131 14.1231 0.0408501 -4.41529 -490082 -298109 170356 -97499.5 -204587 -144367 14 10.9231 0.0346736
278 1 19.4192 15.8579 0.00351641 -4.41672 -474257 -176287 -346158 -582052 393615 422256 15 10.8425 0.024393
279 1 19.4158 14.1677 1.74027 -4.40737 -573934 -692701 -796511 -197833 -275717 -195796 15 10.6399 0.0148591