ITEM: TIMESTEP
4000
ITEM: NUMBER OF ATOMS
16382
ITEM: BOX BOUNDS pp pp pp
-3.1720650550116858e-02 5.6543720650550675e+01
-3.1720650550116858e-02 5.6543720650550675e+01
-3.1720650550116858e-02 5.6543720650550675e+01
ITEM: ATOMS id type x y z c_peatom c_satom[1] c_satom[2] c_satom[3] c_satom[4] c_satom[5] c_satom[6] c_coord c_voro[1]
1 1 56.4143 56.4677 56.4352 -4.41802 -84197.4 -255776 5094.73 170552 -657489 141695 15 10.9714
2 1 1.67742 1.67274 0.0383239 -4.39408 -414849 91252.6 -602554 696634 -583071 507624 15 10.9107
3 1 1.64027 -0.0297198 1.66421 -4.38603 -323901 -1.19674e+06 -107969 227447 175779 282428 14 10.7699
4 1 56.463 1.6447 1.67494 -4.40947 -637770 -124874 89696.7 -64819.3 392461 566359 15 10.9393
5 1 3.447 0.00294133 56.514 -4.39373 -874106 -811522 -60695.2 -94291.4 -117134 804.587 13 10.7481
6 1 5.21194 1.79391 56.5265 -4.41896 -455557 -83961.1 -55032.5 146606 -88113.7 -776194 14 10.8906
7 1 5.26404 -0.0194 1.77389 -4.44366 1.00456e+06 739371 620942 173666 65608.9 -756143 15 11.4321
8 1 3.4283 1.71853 1.65923 -4.42629 -158151 186393 -85073.2 -39172.6 -240948 -64180.1 15 11
9 1 7.04577 0.0884285 56.4815 -4.43877 556079 473917 393561 -228386 -128301 -198047 13 11.2507
10 1 8.8162 1.80202 56.4879 -4.41133 -554746 -491294 429348 -779924 325473 -74477.6 13 10.9134
11 1 8.92472 0.00836648 1.62648 -4.42584 284763 236421 -6530.74 -374918 -142953 -392972 15 11.1271
12 1 7.07803 1.78489 1.68927 -4.40063 53008.1 -554656 -377120 84267.9 -100456 -78160.5 14 10.9218
13 1 10.62 0.00928835 56.4641 -4.42907 -428298 380482 128699 -227362 306907 20535.5 14 10.9791
14 1 12.3368 1.72285 0.00651234 -4.39299 -287108 -426775 243721 241776 121120 -44003.8 14 11.0195
15 1 12.3135 0.0569416 1.74966 -4.42134 -28569.5 -527478 -197143 -163513 175786 20055.3 15 10.8513
16 1 10.5621 1.77055 1.7386 -4.41711 -821367 -485488 1154.12 -340792 415289 -66808.4 15 10.7592
17 1 14.0165 0.0656807 -0.00409356 -4.39994 -290842 -247131 350139 269466 115956 372628 13 11.0344
18 1 15.8099 1.7568 0.0584118 -4.38095 -54325.1 -568474 -275215 -348624 -442088 440753 14 10.9753
19 1 15.7705 0.0970895 1.67877 -4.37542 -441840 -503012 -1.03881e+06 -659233 -466670 626380 15 10.7783
20 1 13.9821 1.81502 1.84077 -4.39517 -424182 -578746 -488689 119994 253311 -377519 15 10.7965
21 1 17.6396 0.0639666 56.5271 -4.43254 87174.9 -334556 -62517.9 -197830 -197183 76199.5 16 10.9231
22 1 19.3662 1.74604 -0.0120705 -4.42029 85047.7 -14989.4 34111.8 -115784 247991 312047 13 11.0054
23 1 19.3842 0.0933031 1.76452 -4.42616 179219 326737 547709 -205334 190958 293302 13 11.2038
24 1 17.5368 1.76833 1.68161 -4.38051 -961563 -606531 -647164 341015 -162694 355650 13 10.6857
25 1 21.1342 -0.0177091 56.4657 -4.41649 276045 156176 215122 415851 -35653.6 745204 14 11.1711
26 1 22.9348 1.75268 0.0458966 -4.40204 619353 -4858.11 179815 164282 118367 190522 15 11.254
27 1 22.9667 0.125494 1.74215 -4.40351 649816 -474090 99906.5 -140626 -32444.9 333969 13 11.0716
28 1 21.1484 1.7953 1.79111 -4.42743 39436.8 -28519.2 353687 58645.5 95201.4 306019 14 11.104
29 1 24.8596 56.5448 56.5318 -4.4381 918142 451499 775417 -459805 91089.6 429312 14 11.4104
30 1 26.5148 1.80662 -0.0173301 -4.40035 -875680 516300 102785 177926 18339.6 -135.056 14 10.9829
31 1 26.505 0.0313696 1.8025 -4.4223 362453 709415 109524 388303 384726 277478 13 11.2298
32 1 24.7607 1.82393 1.73859 -4.43419 -61295 -87695.2 417499 167398 436085 46614.4 15 11.087
33 1 28.1941 0.0724333 0.0410125 -4.43006 97645.3 255006 29081 347036 235361 558145 15 11.0518
34 1 29.9894 1.86865 -0.0274121 -4.44479 174213 209085 156180 73294.1 143827 119833 15 11.0752
35 1 30.037 0.00832149 1.73194 -4.42694 70848.7 410739 -365327 -346742 632023 -397985 13 11.0127
36 1 28.2475 1.9437 1.72801 -4.41029 238816 482768 -149083 -2232.94 57206.1 -400362 15 11.1661
37 1 31.6896 56.4998 -0.0049679 -4.40639 249153 64826.7 -856873 -142137 350149 186401 15 10.9496
38 1 33.4754 1.75107 0.0170986 -4.37448 -235488 -155324 -1.44234e+06 290694 -568413 -135914 13 10.7617
39 1 33.5452 0.06718 1.76337 -4.41301 -262774 -815852 13721.5 -406310 -284586 633169 15 10.8433
40 1 31.7943 1.76153 1.76817 -4.43965 -411259 -117565 88289.8 375462 726575 124754 16 10.9398
41 1 35.3721 -0.00374827 0.00618308 -4.42009 -54281.6 -397231 -463281 -162330 -25237.9 373928 14 10.8566
42 1 37.121 1.71477 0.0623417 -4.43541 -167437 752107 599582 37181.7 -130276 274194 15 11.2228
43 1 37.0968 56.4903 1.74924 -4.42492 1437.14 -121308 40028.3 -53198.4 -169553 319566 13 10.9489
44 1 35.2734 1.72863 1.72256 -4.41051 -243382 46126.1 -362150 -325130 -137641 25267.9 14 10.9331
45 1 38.8937 -0.0110559 56.5007 -4.40478 -257919 -743427 -484735 56407.1 200764 -200229 13 10.7573
46 1 40.6768 1.61135 0.129966 -4.3925 -662744 -622291 299735 -210016 359312 -178980 15 10.9768
47 1 40.6338 56.468 1.81108 -4.40543 -258195 80487.5 181266 -224650 369435 288452 14 11.072
48 1 38.8632 1.62958 1.76733 -4.4135 -432822 276269 -251370 -239263 -161898 154476 13 10.9601
49 1 42.3557 56.5229 0.0259035 -4.42905 -135940 -130221 448737 630743 137695 -107105 14 11.0598
50 1 44.1422 1.70604 -0.0251885 -4.41786 212407 347354 323887 573121 -17040.2 550545 15 11.1958
51 1 44.2574 0.0179446 1.67728 -4.37377 -59970.9 -273479 -412926 547587 -451869 588854 13 10.9749
52 1 42.5525 1.69909 1.81133 -4.40672 292335 454499 13825.7 431191 -193515 -217347 13 11.1966
53 1 45.9789 0.0418252 56.5126 -4.42459 45956.8 46191.3 41494 -16970.2 183486 -325479 13 11.0101
54 1 47.7597 1.70175 -0.0236407 -4.4293 89369.9 12604.4 436925 -336118 -313453 156373 14 11.0968
55 1 47.7178 56.5439 1.69447 -4.44798 586226 55566.2 104443 -102927 -495011 107823 16 11.0789
56 1 45.985 1.77806 1.71765 -4.43142 -152324 886.315 -198016 -493267 -393361 52441 15 10.9753
57 1 49.5517 -0.0305447 56.4739 -4.41782 -120293 998061 166695 -65307.3 -69843.1 -129175 14 11.2327
58 1 51.365 1.73808 56.5051 -4.40239 880084 -389756 -78927.4 -441868 -43972.8 85477.6 14 11.2173
59 1 51.3293 56.4547 1.64336 -4.40033 -14812.7 79176.1 -260514 -30370 532412 -473951 15 11.0541
60 1 49.4258 1.81419 1.74163 -4.40052 -51537.1 285117 78314.8 -43197 -342484 230821 15 11.1736
61 1 53.0141 56.4013 -0.00855129 -4.37833 -1.24479e+06 -17986.8 -532302 142319 834461 357520 15 10.7486
62 1 54.7686 1.72272 56.5059 -4.408 -203271 -267565 -873171 540640 -590668 687015 14 10.8085
63 1 54.7021 0.0346674 1.78282 -4.4202 30063 -204909 239680 -405169 33586.3 233148 13 11.0291
64 1 53.0269 1.79926 1.7405 -4.40714 -473898 112341 361212 772001 73714.3 -145087 13 11.0263
65 1 0.000622435 3.47221 0.0423578 -4.43025 -270297 -67548.7 157088 30131.5 -30310.6 228927 13 10.9864
66 1 1.68463 5.22027 56.4864 -4.40008 -590549 -146113 -215492 233347 11423 -106385 13 10.8539
67 1 1.70357 3.47768 1.79365 -4.42806 -466483 -160014 336456 237108 -272751 -312733 14 10.9298
68 1 0.0971796 5.27101 1.83724 -4.41305 199925 70085.2 2948.5 21636.6 173938 74910 14 11.0895
69 1 3.52547 3.51215 0.0293894 -4.40625 533103 -542158 -157882 521464 -149313 -501003 14 11.0212
70 1 5.33035 5.21711 56.4609 -4.38931 -299411 -583406 250476 -415278 -487462 -326426 13 10.9812
71 1 5.27926 3.39802 1.78072 -4.43015 -274948 147889 414893 127104 -87978.8 -305863 14 11.0495
72 1 3.46461 5.10862 1.7378 -4.41325 367366 -411259 -272093 98734.8 447026 -795535 16 11.0583
73 1 7.00265 3.45635 0.0106782 -4.40595 164837 -584267 69124.6 284954 -103690 -37423.2 16 10.9879
74 1 8.83113 5.19896 56.5427 -4.43159 358199 208350 79009.8 297679 -227011 -184135 14 11.1742
75 1 8.79452 3.49267 1.74867 -4.41605 -364316 -530938 -644646 -180622 206369 406325 14 10.7126
76 1 6.95467 5.18265 1.70557 -4.42012 337346 105645 -246172 90757.5 -145367 -142648 14 11.0442
77 1 10.4571 3.45899 56.499 -4.39482 -569539 -547537 -40691.1 -232202 -10774.6 -418390 15 10.8735
78 1 12.2431 5.3187 56.489 -4.37079 8216.34 -705212 -1.3259e+06 731800 -422702 -889715 14 10.747
79 1 12.2541 3.514 1.66429 -4.41506 -387645 -359437 646888 468412 396522 -183231 15 11.003
80 1 10.5862 5.22116 1.70022 -4.41009 -255017 -629115 -49325.3 296586 -221147 -231752 15 10.876
81 1 14.0481 3.56962 56.5051 -4.44258 582646 460787 376492 -68178.6 144565 -527655 13 11.2432
82 1 15.8926 5.28021 56.4052 -4.39085 -219975 497.784 12621.8 -78654 103090 -412117 14 11.0591
83 1 15.8932 3.50921 1.73012 -4.42171 -112767 173881 133064 87410.2 -91281.6 -495349 14 11.1252
84 1 14.0234 5.30749 1.62375 -4.43444 770203 567590 863741 116476 63301.6 -443114 16 11.4696
85 1 17.5614 3.48755 56.5041 -4.42402 -35293.5 252435 276716 192834 412779 129431 14 11.1342
86 1 19.341 5.33264 56.5054 -4.40013 1.24644e+06 -88235.8 625378 574477 -27043.3 -500341 15 11.4316
87 1 19.4092 3.52077 1.71058 -4.44179 643316 438188 479587 52726 -261465 -7601.94 14 11.2643
88 1 17.5826 5.31745 1.85521 -4.29641 -255799 -1.04547e+06 -1.40957e+06 103383 36358.2 -245384 13 10.8288
89 1 21.2757 3.51107 0.0369635 -4.39648 344834 247097 244269 25929 -225492 -85652.7 13 11.2311
90 1 22.9722 5.26727 56.5102 -4.42704 -214473 -144472 20133.7 105074 16702.8 287418 12 11.0169
91 1 22.9756 3.48819 1.72547 -4.39895 -60248.1 -313725 -518676 140949 -329293 -394455 13 10.8903
92 1 21.1547 5.27324 1.72231 -4.42984 839150 485774 835776 68274.5 -335486 -17411.6 13 11.4076
93 1 24.6978 3.55399 -0.00163324 -4.41355 425265 -414094 -67652.2 269312 88579.7 -422410 13 11.018
94 1 26.5209 5.3163 56.4291 -4.38325 -356897 291955 -562753 152580 -812743 509888 13 10.9707
95 1 26.4843 3.63441 1.72322 -4.41304 -239458 -162496 558122 456323 -22123.8 -534414 14 11.0379
96 1 24.7353 5.27276 1.68889 -4.41702 -111031 -482214 279556 652587 -383408 -578432 14 10.9689
97 1 28.2748 3.59117 56.5119 -4.42898 494995 -364117 447071 374945 404304 255519 13 11.1025
98 1 30.1475 5.25844 -0.0177983 -4.41049 173972 -315585 -52375.4 181709 226911 -564645 14 11.0169
99 1 30.1427 3.52467 1.84089 -4.40315 -280884 -325195 20581.6 -451257 -67919.3 56903.6 15 10.9539
100 1 28.2605 5.36279 1.67697 -4.41921 326975 -48366.6 515759 -448331 291669 -9181.55 13 11.1898
101 1 31.8255 3.56611 0.0248774 -4.39543 -864230 -579709 -4683.35 309272 -228468 -337193 12 10.7487
102 1 33.5032 5.30624 0.115642 -4.41676 456030 2205.32 433493 -406173 242707 45860.4 14 11.2413
103 1 33.5499 3.53053 1.74759 -4.43703 373227 -129541 -12533.3 427200 -456815 73375.4 14 11.0751
104 1 31.8048 5.25146 1.85388 -4.38787 -884246 42127.7 9932.75 160956 -228863 -180115 14 10.9325
105 1 35.3752 3.52915 0.00377496 -4.43915 666529 230202 331403 -273279 48920.9 346289 13 11.2005
106 1 37.1319 5.19499 -0.00603798 -4.40127 11098.1 381200 112080 36181 188013 -188050 13 11.1552
107 1 37.1397 3.52618 1.83642 -4.41105 785717 9123.6 -201586 155314 -87560.6 576287 14 11.1258
108 1 35.4512 5.3678 1.70711 -4.38876 -266714 -90638.4 -500341 220640 -164936 -170060 14 10.9001
109 1 38.9091 3.53327 0.0344959 -4.41311 189743 260404 391997 -143647 -418171 -225975 14 11.1836
110 1 40.6429 5.22524 56.5226 -4.42054 546428 358281 20567 -510761 70449.5 -32442.9 13 11.2099
111 1 40.6042 3.43864 1.74323 -4.41079 -51937.4 311682 -592991 -314717 -760100 19138.8 14 10.9602
112 1 38.9385 5.33729 1.70174 -4.37709 69773.9 -377859 107682 -1.05074e+06 -50146.3 -890697 15 11.1034
113 1 42.3927 3.38826 56.4844 -4.40419 207667 613544 187087 417895 -158217 -472873 14 11.3474
114 1 44.2707 5.25477 56.5323 -4.38491 99554.8 204974 -164163 46637.9 -101562 791442 13 11.1681
115 1 44.1954 3.60757 1.70204 -4.4207 293651 126700 580543 -157235 -330990 305342 14 11.2477
116 1 42.3529 5.19857 1.82473 -4.37699 -359429 163492 -100554 243608 -307537 659655 13 11.0917
117 1 46.0098 3.51533 56.5252 -4.4231 158841 -497554 -93436.9 -63746.2 138146 530162 15 10.9761
118 1 47.7145 5.21533 -0.0178372 -4.3783 -698576 -838019 -662018 244398 -4986.07 -234885 13 10.6856
119 1 47.7208 3.52605 1.70577 -4.41926 -545126 -583004 -470914 180801 -92237.1 629314 14 10.7017
120 1 45.9644 5.29602 1.67222 -4.38976 -722630 -276384 -67373 -922939 -579371 194089 13 10.9065
121 1 49.3976 3.56668 56.5113 -4.3961 -632950 323346 20598.6 298967 394227 233500 15 11.1005
122 1 51.3036 5.26365 -0.00343001 -4.40608 -126300 55793.6 -384730 -110288 -115040 -578562 12 10.9425
123 1 51.3018 3.44132 1.72569 -4.41956 573303 304532 745293 355036 -188701 177890 13 11.3692
124 1 49.4766 5.30863 1.80058 -4.42821 133977 1747.44 381015 -149270 -354793 38568.8 15 11.106
125 1 53.0782 3.48197 56.4678 -4.37872 -937487 -602707 -494115 -75814.8 42898 280280 12 10.6911
126 1 54.8167 5.22304 -0.0157091 -4.41642 -273718 572815 249259 -466181 738075 404265 15 11.1538
127 1 54.8198 3.53431 1.74381 -4.43349 429707 -18773.7 -209545 141083 298971 -8205.37 13 11.0295
128 1 53.0963 5.32475 1.60698 -4.36278 -766875 86968.7 180606 -325058 -376746 -51636.5 13 11.101
129 1 -0.00478993 6.93106 0.0509323 -4.40816 380647 -286046 411432 44826.5 71254.9 -527973 14 11.158
130 1 1.70988 8.77131 0.017726 -4.41892 -17414.4 110488 173731 133735 386870 -400148 13 11.0532
131 1 1.85377 7.00999 1.74504 -4.42524 -312896 262755 67764.5 -344910 -119677 258954 14 11.0169
132 1 56.4999 8.73066 1.66483 -4.41426 161114 266913 -126242 -129140 149695 29501.7 14 11.0695
133 1 3.5448 7.00203 -0.00141957 -4.43881 383772 203881 -604066 43775.5 158929 -230429 16 10.9686
134 1 5.36641 8.76739 -0.00514164 -4.41224 -521128 -33231.5 -514651 185674 -46429 213799 13 10.9114
135 1 5.24833 7.02572 1.75684 -4.38338 -1.07108e+06 -45019.7 -819881 851346 148471 636231 14 10.7657
136 1 3.60436 8.71139 1.74933 -4.40667 -118344 -650168 54720.8 121657 69097.3 -87889.2 14 10.9261
137 1 6.92076 6.95396 0.00756092 -4.39862 -153137 -99201.3 596138 -94153.2 242577 158699 15 11.1388
138 1 8.73478 8.8192 56.4855 -4.43047 970381 335864 28511.8 389360 -684408 -241955 15 11.2604
139 1 8.83647 6.99651 1.64341 -4.42931 424576 996239 393271 2869.69 -93807.3 -206171 14 11.372
140 1 6.99583 8.8241 1.81606 -4.40372 -634699 270739 -380632 -37402.9 -236671 290827 14 10.9384
141 1 10.5737 7.03914 56.544 -4.37582 -826749 -182309 -786231 341856 -166220 -567124 13 10.7631
142 1 12.3806 8.77596 56.494 -4.40259 -142463 -1.08082e+06 -958488 183215 49980.1 -222329 14 10.6476
143 1 12.2902 7.01744 1.57416 -4.38904 -420444 -494659 -628099 -185413 -452964 -143968 15 10.806
144 1 10.5053 8.86676 1.62335 -4.44007 205128 251033 739250 -243197 -131979 -182022 14 11.1975
145 1 14.1238 7.11588 56.4772 -4.4244 -62015.3 -27803.7 -503385 447380 155862 -96411.4 14 10.8818
146 1 15.8982 8.90052 56.517 -4.43456 47275.6 278524 876565 -264078 3694.96 -274295 14 11.227
147 1 15.8508 7.01568 1.69802 -4.42982 -23028 382025 560025 533488 -263116 -112241 12 11.1639
148 1 14.0737 8.69715 1.72861 -4.41317 -96534.9 -230752 -128000 505037 -120855 -327845 13 10.9526
149 1 17.6352 6.97642 56.5281 -4.4221 -382366 169029 709287 66050 17318.5 -78724 15 11.1181
150 1 19.3392 8.81166 56.4926 -4.41027 148043 502819 -200930 195514 348784 -61270.5 15 11.128
151 1 19.4401 7.05044 1.63247 -4.41881 563761 413102 411011 350919 -229980 -366934 13 11.2852
152 1 17.6711 8.81381 1.72946 -4.42185 41428.3 862486 69392.1 53997.4 -7260.98 12063.5 13 11.1853
153 1 21.2897 7.06638 56.5278 -4.4035 -76118.8 -80406.5 201479 -431279 453078 162639 14 11.0728
154 1 22.9092 8.77552 56.4963 -4.39245 -393027 -176286 492874 -84807 240111 -375041 13 11.0979
155 1 23.0337 7.02312 1.74843 -4.41103 70079.8 740170 79021.4 98600.6 -245122 -40713 14 11.2111
156 1 21.2158 8.89745 1.65693 -4.43203 531400 503837 539414 -590378 155338 -281465 14 11.3271
157 1 24.6855 7.12286 0.0186971 -4.42781 302902 325253 -140738 305372 199590 -16146.1 14 11.0813
158 1 26.5182 8.94241 0.00681504 -4.40857 -219490 505150 -635950 80657.9 639788 -24323.3 15 11.0249
159 1 26.5161 7.07065 1.76596 -4.44591 124174 399175 560865 336787 -60373.2 377130 15 11.1691
160 1 24.749 8.84504 1.82049 -4.43225 451760 495320 275442 -54843.3 -57207 -339782 13 11.2128
161 1 28.3164 7.10379 0.0282715 -4.41283 279998 215024 -219004 -460612 -256379 565316 14 11.0764
162 1 29.9593 8.89409 0.0439979 -4.42193 -264422 39738.3 -27859.6 -120310 246926 -214158 15 10.9442
163 1 30.0888 6.96009 1.70259 -4.4152 -172084 303773 362340 -201210 43407.1 -446523 14 11.1626
164 1 28.2634 8.88502 1.7544 -4.42868 208066 239087 -375354 -295838 212174 -308523 14 10.9832
165 1 31.7941 7.09259 56.5184 -4.39184 42631.1 -189917 -465974 -61364 85649.2 2897.22 14 10.9818
166 1 33.6363 8.90977 56.5304 -4.40291 -323815 23670.7 -808238 -35605.1 37132.4 -813818 14 10.8253
167 1 33.6685 7.06688 1.76841 -4.41986 721412 5903.85 -193568 321946 -102637 -341345 14 11.1508
168 1 31.8374 8.79695 1.64808 -4.43815 328148 493429 488538 -238967 7724.72 -113358 13 11.2447
169 1 35.3091 7.04732 56.4804 -4.40669 -57317 420987 -685189 30425.1 -460398 225733 13 10.9569
170 1 37.0779 8.92643 0.0451444 -4.35203 -1.06505e+06 -400087 -1.24348e+06 453826 167458 780636 14 10.693
171 1 37.0608 7.16686 1.58064 -4.3578 -181904 -824876 381036 -548551 -49108.8 526160 14 11.0952
172 1 35.4149 8.9322 1.6917 -4.38342 -495550 121421 314929 570483 660579 -149828 14 11.157
173 1 38.8566 7.19113 56.5133 -4.34032 -891080 -91238.9 28567.4 -1.03448e+06 252056 517171 14 11.0589
174 1 40.6142 8.62745 56.442 -4.35439 -670721 -688624 831200 -909317 -290899 375806 14 11.0932
175 1 40.602 6.93737 1.69943 -4.39231 -384977 -404419 -75359.3 -787893 347259 78877.8 14 10.964
176 1 38.8054 8.83364 1.76579 -4.42293 85962.9 52318.6 -184492 -871926 -418727 -63438.2 15 11.0248
177 1 42.4277 7.02634 0.0175994 -4.43093 -114329 572927 373471 96513.8 -132035 -214861 15 11.1991
178 1 44.1133 8.84334 56.5333 -4.40886 -535742 -222986 -540678 97311.3 19854 20466.4 13 10.7459
179 1 44.0788 7.08514 1.78118 -4.40565 -321175 67787.6 -810.116 402594 -71780.4 70221.1 15 11.0184
180 1 42.4532 8.79279 1.76098 -4.39094 123721 -888754 -384322 853643 188646 244299 15 10.8696
181 1 45.9113 7.06775 56.5319 -4.43987 426559 62138.6 54265.7 -289867 -477630 295253 14 11.1089
182 1 47.8111 8.76897 -0.0268429 -4.42742 455315 158654 901395 -13937.3 -286565 -17603.8 14 11.2983
183 1 47.6823 6.91526 1.68507 -4.39099 -111828 -119995 159346 -366579 -22704.3 35574.2 13 11.0921
184 1 45.8401 8.8312 1.77172 -4.40304 349150 -410385 -236341 206517 158237 266821 15 11.0318
185 1 49.5189 7.02924 56.518 -4.43031 317902 -124379 211383 111666 -125558 -63286.8 14 11.0527
186 1 51.2028 8.77899 0.0244972 -4.43468 355931 443896 911980 242255 -20520.3 198902 15 11.3422
187 1 51.2275 6.98856 1.77302 -4.43353 -70398 255058 -43377 -347034 -249840 -118954 14 11.0012
188 1 49.4435 8.79753 1.79872 -4.41257 -658563 557453 -448459 -74496.5 -90122.9 429313 15 10.933
189 1 52.9414 7.10671 56.4956 -4.421 747251 -242316 459529 -34130.1 170258 81434 13 11.1959
190 1 54.7801 8.82847 56.5119 -4.43114 476655 888083 481855 -72293.4 -204283 72836.8 13 11.3581
191 1 54.6669 7.05323 1.81499 -4.3597 -95336.1 -805160 20925.8 -967567 34664.3 -204295 14 11.031
192 1 52.9331 8.8377 1.78438 -4.42272 -249316 59337.2 -382899 351439 -292433 144341 14 10.8963
193 1 0.0656876 10.5707 56.5132 -4.40767 651357 330875 97733.9 -2997.81 -423018 -119973 13 11.3046
194 1 1.88703 12.3693 0.0353864 -4.38943 -31726 -34003.6 112624 -430914 -62778.2 170353 14 11.0967
195 1 1.70315 10.551 1.75135 -4.40513 622963 747763 -384700 -276401 211940 624203 13 11.2487
196 1 56.5128 12.4509 1.71923 -4.4191 651234 258366 531054 -502505 161946 -178942 13 11.3165
197 1 3.48956 10.5383 0.0273287 -4.42733 457446 46756.5 566454 -142210 197249 -574712 14 11.2408
198 1 5.18859 12.2734 56.4973 -4.42483 57989.2 -377605 78018 -95054.9 -143181 -162993 13 10.9479
199 1 5.32291 10.5731 1.70808 -4.42201 -74433.7 -551306 54591.2 -126075 58373.3 229360 13 10.867
200 1 3.52083 12.3378 1.79311 -4.41668 -201860 66489.4 61290.5 -551963 -602726 -59467.2 14 11.0398
201 1 7.00923 10.5974 56.4727 -4.41727 -577994 -309324 189483 -301063 108400 -476923 14 10.8593
202 1 8.72077 12.2918 -0.0148201 -4.42826 715001 327413 874763 -365055 188475 -141769 15 11.3719
203 1 8.73844 10.5518 1.70846 -4.43707 333227 -32579.3 336922 -76700.4 -76373.2 367018 14 11.1149
204 1 6.92432 12.3421 1.6776 -4.40462 157395 -186146 -113553 -298406 304412 365443 13 11.0322
205 1 10.6324 10.6423 56.4817 -4.40733 136143 -200735 -665543 -353251 -198963 -400843 15 11.0106
206 1 12.3593 12.2811 -0.0153997 -4.40616 -201936 97137.8 59338.9 -265732 -90941.4 -506451 12 11.0617
207 1 12.3661 10.4144 1.65468 -4.39655 -603053 -205844 -369702 309907 -362786 -42676.7 15 10.8257
208 1 10.6515 12.1797 1.75139 -4.37515 489008 -513906 -849413 -391608 305362 78872.5 14 10.9566
209 1 14.1274 10.5622 56.5345 -4.43313 -219430 17710.4 191996 317339 184373 -580172 15 10.9758
210 1 15.9058 12.3318 0.0426694 -4.42751 332990 573614 670545 108095 324870 -158479 13 11.3129
211 1 15.8209 10.5959 1.83096 -4.42553 952921 361096 333412 334003 -160755 190419 14 11.3394
212 1 14.1144 12.3407 1.67726 -4.4014 -276118 217061 241221 890069 417492 91430.7 13 11.0927
213 1 17.6183 10.556 56.4616 -4.39031 323195 317644 1.0928e+06 42715.4 225314 -202633 14 11.4852
214 1 19.4751 12.4291 56.53 -4.41151 397965 126043 119988 340670 369562 18424.9 14 11.1642
215 1 19.3568 10.6581 1.73556 -4.45295 789936 480247 925700 -120504 -192440 52487.3 14 11.3879
216 1 17.6372 12.4388 1.84943 -4.36708 -476839 -202608 363101 861082 -36005.9 8172.15 14 11.1216
217 1 21.2125 10.6594 56.4705 -4.39817 399294 -532104 -474010 211735 -121289 311461 12 10.957
218 1 23.0265 12.3419 0.0108125 -4.41221 -684686 -235465 -357247 -14286.8 -622146 125920 14 10.7931
219 1 22.8964 10.5957 1.7109 -4.39037 -124895 -893303 -110929 -22781.7 -89780.8 -92515.3 12 10.8435
220 1 21.2246 12.299 1.75041 -4.42523 -499403 -83126.1 170534 553846 -207305 294405 14 10.9341
221 1 24.7328 10.6274 -0.0213678 -4.42126 152815 -144862 596127 398574 -128711 -331559 12 11.1468
222 1 26.4812 12.3183 56.4526 -4.43898 -359483 674452 -188810 -100937 -111743 299227 15 11.05
223 1 26.4999 10.6903 1.75973 -4.39831 -410929 -551061 -696035 147385 -150611 -308150 13 10.7016
224 1 24.7624 12.3579 1.63122 -4.40675 -241622 -29999.3 -311120 249899 -223023 -316558 14 10.9397
225 1 28.2745 10.6661 0.0181423 -4.41138 -296421 -1.03724e+06 278748 -98462.7 -3898.31 -111343 13 10.8128
226 1 30.0278 12.3098 0.0363932 -4.40605 -260258 22249.3 55471.9 -265881 -527782 504675 14 11.0342
227 1 30.0535 10.6242 1.75165 -4.41906 559324 -29394 -312720 -309843 267003 -32770.6 13 11.0392
228 1 28.1977 12.4398 1.71604 -4.41141 -766276 -710387 -77674.5 -240864 -106758 -176166 14 10.7458
229 1 31.7901 10.6451 56.5279 -4.42764 442720 -127045 82156.7 367042 -243401 -259268 13 11.0583
230 1 33.682 12.346 -0.00800877 -4.44073 410523 394339 196333 404334 -25633.8 -113363 15 11.1753
231 1 33.6011 10.5488 1.67804 -4.41075 721984 69766 143377 202268 336825 -492207 14 11.2386
232 1 31.8121 12.4315 1.69666 -4.42298 243700 467301 -208398 -514132 -446023 207624 14 11.0943
233 1 35.3817 10.6518 56.5267 -4.38322 -1.00971e+06 -678105 -413908 465858 315497 -80729.9 13 10.6944
234 1 37.2045 12.3515 56.4625 -4.33295 -822275 -812010 -1.22333e+06 -263046 766575 -756260 15 10.7242
235 1 37.0924 10.7441 1.77425 -4.40873 125635 313987 61924.2 -254033 642713 -498229 14 11.1495
236 1 35.3546 12.4612 1.84401 -4.39247 -290463 -45640.4 630716 910433 -137865 -348946 14 11.1531
237 1 38.9404 10.589 0.0233953 -4.44576 466345 186268 -222468 72224.2 -280231 254807 15 11.0347
238 1 40.7092 12.4283 56.4876 -4.41405 -238408 -411386 97681.1 179905 -391810 95959.4 14 10.9564
239 1 40.6228 10.4714 1.73815 -4.39276 -1.01545e+06 753885 -393137 -317914 -295172 -116734 13 10.9689
240 1 38.943 12.4019 1.73753 -4.43357 -56017 -209395 11347.2 -164752 112174 255877 15 10.9318
241 1 42.3379 10.4918 56.543 -4.39537 -212459 902054 -107028 562705 -527626 -60070.1 15 11.1973
242 1 44.2114 12.335 -0.00831046 -4.44287 617721 465404 384999 133477 -383224 -184839 14 11.2729
243 1 44.2191 10.5599 1.73175 -4.42235 -199289 -715262 576516 -37773.4 49049.1 -20218.3 15 10.9624
244 1 42.3418 12.2539 1.78711 -4.42203 480330 -300483 196225 396556 137055 491618 15 11.0975
245 1 45.9911 10.4941 -0.0268385 -4.4307 164645 -176301 -16871.5 -547142 6060.74 -425041 14 11.0004
246 1 47.653 12.2474 0.0470415 -4.42182 -549796 -55368.6 6128 -66975.8 -213647 244254 16 10.9016
247 1 47.6942 10.5636 1.82025 -4.4065 127319 -755082 -635095 347205 388144 81025.9 15 10.8211
248 1 45.9262 12.2371 1.73308 -4.40074 -875116 207725 -230382 -142763 458992 -109234 13 10.8759
249 1 49.4249 10.5614 0.0155326 -4.41049 -130700 -201176 589443 -366576 -289782 -34899.7 14 11.0968
250 1 51.2664 12.1768 0.00140247 -4.41102 -512079 -391922 265382 82496.5 372721 381109 15 10.9299
251 1 51.1707 10.531 1.77312 -4.40399 -64540.3 -1.23679e+06 -497150 -48363.5 -96829.7 674664 14 10.7007
252 1 49.4627 12.3375 1.64982 -4.39956 123461 -188184 -455721 -108592 -108253 3938.31 15 10.9545
253 1 53.0391 10.6245 0.0448809 -4.42827 -191715 107008 468098 546164 8878.02 66529.3 14 11.1051
254 1 54.6918 12.4166 56.5151 -4.37893 -137959 -43029.7 499527 209320 -632792 -171048 14 11.2055
255 1 54.799 10.5967 1.80022 -4.41444 289439 321620 -23917.1 190142 -303544 -326084 13 11.1572
256 1 52.943 12.2288 1.92533 -4.35749 -294408 -665050 -613433 350707 334700 355739 15 10.8673
257 1 56.5366 14.1377 56.5334 -4.38742 431367 -384963 -509632 -426936 -247478 -599276 13 10.9948
258 1 1.75182 15.7623 -0.00810017 -4.42144 329707 -43711.6 99251.5 91472.1 88250.3 -518318 14 11.0922
259 1 1.70605 14.0804 1.79924 -4.41462 -147090 -412677 -15288.7 -390995 249064 -268961 14 10.8988
260 1 56.4379 15.7272 1.64561 -4.37586 27515.6 -106922 -98901.8 -257870 124995 -431092 14 11.1326
261 1 3.51031 14.0646 56.4952 -4.37388 -1.05461e+06 -721198 157150 -547148 -815655 27639.4 13 10.7738
262 1 5.14941 15.8532 0.0164496 -4.41499 476875 -212335 49685.6 -575905 99495.1 105180 14 11.0749
263 1 5.10917 14.0893 1.73514 -4.39729 -476959 -103275 -64736.6 -154140 442264 235682 14 10.9522
264 1 3.42608 15.8509 1.81299 -4.37338 -960416 -815299 -459851 -139579 487177 -470269 14 10.721
265 1 6.89815 14.0684 0.037996 -4.42809 1.01088e+06 489034 438299 78632.2 -56976.2 681745 15 11.3869
266 1 8.79315 15.865 -0.0111504 -4.40423 479412 -437579 -215348 239275 -43120.5 469545 13 10.9912
267 1 8.80269 14.1358 1.71938 -4.41158 831668 695880 -85461.2 -125540 46018.4 15024.2 13 11.3041
268 1 6.95794 15.885 1.81351 -4.44991 848804 833815 628562 296715 -6882.29 237018 14 11.4088
269 1 10.5358 14.0639 0.00326918 -4.44733 575088 994491 501004 226070 174443 -282153 14 11.3505
270 1 12.4545 15.8343 -0.00825199 -4.39671 -26435.8 -534167 -421519 -181297 -271855 -704684 16 10.9248
271 1 12.3594 13.9639 1.73823 -4.38973 -224244 -291754 -316330 510395 667985 -17860 14 10.948
272 1 10.6535 15.8773 1.71329 -4.38678 -673028 -523533 337409 -1.19073e+06 -84199.3 185224 14 10.9139
273 1 14.2048 14.17 0.0207142 -4.41739 214508 -30460.5 743842 247971 123213 -86505 14 11.2377
274 1 15.9137 15.8669 0.029056 -4.43691 433270 149170 1.12548e+06 -417863 -34719.2 -101633 14 11.3105
275 1 15.9769 14.0622 1.8289 -4.3868 -589048 -399885 -181185 775973 20024.5 -310266 14 10.8328
276 1 14.1573 15.8532 1.80395 -4.42746 83163.8 188598 -427119 207263 -17991.4 -158418 13 10.9472
277 1 17.6718 14.1197 0.0343917 -4.43155 442643 125116 339377 115344 90814.6 -41853.6 13 11.1275
278 1 19.4176 15.8959 0.00104112 -4.43953 542525 558087 426742 36835.3 11389.9 -297504 13 11.26
279 1 19.4854 14.0613 1.83546 -4.43292 114099 361485 161401 -66043.4 -31883.8 220662 15 11.1396
280 1 17.7231 15.8694 1.80755 -4.45134 720356 1.20335e+06 261360 -165379 326968 26339.1 16 11.3745
281 1 21.2562 14.1626 0.127228 -4.43669 173881 412817 -239411 -102246 -388197 33860.2 14 11.026
282 1 23.0655 15.9569 -0.0114005 -4.38993 -332694 -514658 94003.5 55143.9 -267968 232165 14 10.94
283 1 22.9553 14.1773 1.80297 -4.4478 210435 651858 186664 -15336.7 -531671 -66830.9 15 11.1772
284 1 21.1687 15.9506 1.86137 -4.38315 -157653 -574590 -211412 -273996 -569736 -329307 13 10.9294
285 1 24.6566 14.192 56.5198 -4.42647 -76393.4 -218426 -91196.2 77059.9 -111496 157803 14 10.9877
286 1 26.4771 15.947 -0.00491961 -4.43541 -155414 -455839 180742 551767 117497 -670.431 14 10.9155
287 1 26.5121 14.1248 1.72744 -4.42413 -451071 228169 715387 302148 550991 132628 14 11.0845
288 1 24.7769 15.888 1.82592 -4.38265 312739 -405968 -1.04028e+06 15384.6 -634617 275597 14 10.9294
289 1 28.2034 14.22 -0.025251 -4.42235 -210063 621431 -200170 1115.49 15968.8 41915.5 13 11.0384
290 1 30.0398 15.8716 -0.0309419 -4.40372 -5287.21 -424395 105356 -494152 -45494.1 -169011 12 11.055
291 1 29.8841 14.1852 1.69398 -4.41449 315239 -409525 -279665 -316945 -223263 474628 15 10.9496
292 1 28.1554 15.9393 1.83644 -4.42477 -392440 -426018 617532 -241294 -12813.3 -396825 15 10.9771
293 1 31.7962 14.1084 -0.00456128 -4.3904 773192 -834614 -663496 -28053 -130621 -497671 14 10.9465
294 1 33.6533 15.8098 -0.0155261 -4.42343 -420580 328975 -452804 260549 225842 183971 14 10.9279
295 1 33.6423 14.0709 1.7381 -4.3937 -283965 -933981 24805.7 568586 -152243 -103375 12 10.8234
296 1 31.8365 15.784 1.60927 -4.40333 381927 235653 -417636 153183 -171396 -371906 15 11.1209
297 1 35.4881 14.1909 -0.0190492 -4.38991 -439294 -524261 -481187 -205046 377248 -243324 14 10.8114
298 1 37.2094 15.8081 0.0434011 -4.38324 -312649 -969654 -723879 -440267 -212218 -270157 15 10.7225
299 1 37.2143 14.1105 1.73779 -4.40763 -208717 -733178 -276640 -296341 -15635.1 572011 14 10.8186
300 1 35.3675 15.918 1.7074 -4.42831 -182210 372985 -644764 -24651.6 -224771 -440413 16 10.8922
301 1 38.9366 14.0508 0.0127266 -4.36885 -1.2822e+06 -1.44557e+06 -982143 -182176 749214 -100688 14 10.4008
302 1 40.5504 15.819 56.541 -4.40369 -408422 -286889 -180337 -191815 123177 -559535 14 10.9071
303 1 40.7497 14.0373 1.78479 -4.41137 -578360 -320641 552626 -336782 283822 -88789.1 14 10.9534
304 1 38.9048 15.8044 1.74085 -4.41312 -249515 211544 -28831.3 -175516 143346 4008.28 14 11.0775
305 1 42.4681 14.0782 0.0522945 -4.40379 -320230 -141081 -80223.9 -564732 266563 -512479 13 10.9329
306 1 44.1441 15.8571 0.055852 -4.42077 143745 43064.3 306144 -343195 -15041.2 -395278 13 11.1049