ITEM: TIMESTEP
2000
ITEM: NUMBER OF ATOMS
16374
ITEM: BOX BOUNDS pp pp pp
-3.1042514814338062e-02 5.6543042514814601e+01
-3.1042514814338062e-02 5.6543042514814601e+01
-3.1042514814338062e-02 5.6543042514814601e+01
ITEM: ATOMS id type x y z c_peatom c_satom[1] c_satom[2] c_satom[3] c_satom[4] c_satom[5] c_satom[6] c_coord c_voro[1]
1 1 56.4499 56.5388 -0.02912 -4.41988 613075 -46802.4 632109 123747 -379633 -62599.5 14 11.254
2 1 1.63705 1.7856 56.498 -4.40261 -150825 295724 112598 181563 267193 -155651 15 11.1746
3 1 1.66411 56.5224 1.76894 -4.41568 -138978 121944 370203 126203 703751 -361484 15 11.1255
4 1 0.00489234 1.65222 1.8719 -4.39486 -238904 -316556 199481 369302 8345.8 149974 15 11.0143
5 1 3.52563 56.4022 0.0179566 -4.36081 -519005 210120 -542730 -429727 -595968 273453 15 11.0093
6 1 5.17802 1.90593 56.4964 -4.42585 -43531.3 328343 141280 -50347.7 191458 461287 15 11.1211
7 1 5.19412 0.0921879 1.61582 -4.37062 -877035 559561 -540850 -58194.1 -281779 -223635 13 10.9722
8 1 3.41121 1.72378 1.66558 -4.41926 -542293 -291487 202479 1.00109e+06 75184.3 -114314 14 10.9422
9 1 6.98095 -0.0184832 0.0368893 -4.42423 -293481 1.00827e+06 -200648 -144015 443809 283478 14 11.0898
10 1 8.74197 1.7814 0.0685102 -4.42517 568640 112093 333255 292521 93151.3 -1530.34 14 11.1941
11 1 8.78735 -0.0248549 1.67512 -4.4112 390414 84333.8 -149270 -365783 272339 406177 13 11.1288
12 1 6.98154 1.81655 1.809 -4.34421 -939989 -1.14074e+06 -930927 -731638 989611 587977 13 10.624
13 1 10.5636 0.104698 -0.0210849 -4.37314 502743 723435 -327771 183817 -11870.2 858993 14 11.3512
14 1 12.4778 1.75338 56.5275 -4.41014 55785.1 -87187.9 298973 347239 -383609 -507974 13 11.122
15 1 12.3246 56.4888 1.71663 -4.42632 574090 980923 82450.7 155986 40906.9 159186 14 11.3661
16 1 10.6084 1.89504 1.79475 -4.3951 553020 634387 383493 -283161 445345 565606 15 11.4097
17 1 14.1251 0.00150961 56.5312 -4.4097 -81946 205480 1.04997e+06 139929 49974.9 47194.4 12 11.2582
18 1 15.8843 1.67064 56.5 -4.43709 408691 228061 237901 -431336 156171 203592 15 11.1474
19 1 15.986 56.4647 1.77607 -4.39084 114615 -408760 854664 274421 -3742.74 -302253 14 11.1735
20 1 14.2182 1.7572 1.77178 -4.43426 821706 504942 195598 -18609.8 -18266.3 -144504 14 11.2797
21 1 17.6622 56.5183 56.4432 -4.38799 -299113 -1.04238e+06 199089 172803 -56823.4 -181243 14 10.867
22 1 19.3015 1.69169 56.4652 -4.38583 163813 131964 -295135 -338972 -441274 195175 16 11.1757
23 1 19.4898 0.0880911 1.65893 -4.37455 380057 -921133 -589196 17316.4 205477 -1.03515e+06 14 10.9138
24 1 17.5472 1.68037 1.80761 -4.35404 -1.25676e+06 -1.15925e+06 663649 223438 275947 204819 15 10.8328
25 1 21.2528 56.499 56.5394 -4.40354 16565.8 490286 -344497 -676590 67797.7 -91672 14 11.0879
26 1 23.0202 1.74534 -0.00497139 -4.43016 728308 599473 360594 14742.3 373415 146939 12 11.3087
27 1 22.9344 56.532 1.73848 -4.44274 328657 452396 569145 322483 -49562.5 256964 14 11.2427
28 1 21.2515 1.75926 1.78698 -4.40793 628944 174503 416531 -231361 469090 300113 15 11.302
29 1 24.7481 56.476 56.5067 -4.39545 -159140 -108269 -383262 -63355.6 -495393 205415 14 10.9454
30 1 26.5207 1.81539 0.0166361 -4.44416 642099 297337 173939 127281 -161429 -280423 12 11.1699
31 1 26.4397 56.5434 1.66102 -4.41681 -242613 -284691 107224 -576373 -300317 -140082 14 10.9343
32 1 24.7287 1.78812 1.79981 -4.43035 -60405.8 337662 219368 57976.6 -15903 -141513 15 11.1131
33 1 28.2533 -0.000539615 -0.0168344 -4.44451 -279600 -178197 -94826.6 -372433 -80902.3 21249.4 14 10.8376
34 1 30.06 1.71767 -0.00377759 -4.40542 226639 -27941.4 -452185 -96679.5 -989993 29190.8 13 10.9816
35 1 30.0845 56.4735 1.65646 -4.39989 -369433 -75357.2 -334600 23361.6 -101751 -390470 13 10.8926
36 1 28.2035 1.67172 1.83342 -4.36598 -189603 -242127 -548833 -146312 -380056 291720 14 10.9676
37 1 31.7922 56.4652 56.4737 -4.39778 -169031 586203 -312663 256959 1.09209e+06 -119822 14 11.0981
38 1 33.7135 1.80456 56.535 -4.403 -153137 -118190 -197425 226518 -74180.3 66719.3 14 10.9775
39 1 33.5952 0.00263521 1.69439 -4.44233 685693 333522 1.1333e+06 231457 26915.6 -53207.9 14 11.3877
40 1 31.7814 1.72654 1.62067 -4.42653 268104 458874 378825 45598.1 -440241 204731 14 11.2174
41 1 35.4053 0.0130641 -0.0242988 -4.42469 59149.2 255893 173218 619059 773351 28823.2 15 11.1244
42 1 37.1799 1.83047 -0.0134181 -4.42733 496272 -326622 247888 408280 -275162 269424 14 11.0777
43 1 37.1555 0.0874494 1.77795 -4.42956 -164196 366471 525369 -198332 51216 86053.2 14 11.1223
44 1 35.3653 1.75503 1.82355 -4.44213 162605 585883 718054 229276 -106487 -227591 14 11.2274
45 1 38.8741 -0.0105611 0.029363 -4.3998 -576906 -176815 -249450 -29879.8 -410345 212768 13 10.9267
46 1 40.6554 1.67038 56.5194 -4.42286 1311.48 -4818.39 246836 -334360 380549 -2958.58 16 11.0682
47 1 40.5781 56.5051 1.67064 -4.40852 91883.2 19261.8 82355 134768 -471027 -80476.2 15 11.0843
48 1 38.9169 1.72596 1.76979 -4.39812 133685 -380272 315141 -358558 -350836 -888553 12 11.0792
49 1 42.3828 56.5108 56.5059 -4.40615 -672404 -569773 -366470 -374466 -47348.9 80107.8 14 10.7251
50 1 44.0293 1.66524 56.487 -4.3764 -348053 469820 -536076 -468383 -320349 -189906 14 11.0754
51 1 44.1675 56.5212 1.79443 -4.40481 -487908 84468.2 126298 16120 832937 48123.6 14 11.0132
52 1 42.4764 1.75474 1.71699 -4.3946 -301583 -169241 -482429 -346475 832298 262802 14 10.8839
53 1 45.8677 56.4503 56.5406 -4.39656 247825 35554.7 -122233 -427436 8619.07 -176420 14 11.1269
54 1 47.6696 1.75799 56.5287 -4.42537 475982 112853 403527 416885 43280.3 -17186.6 14 11.1951
55 1 47.6661 -0.00244007 1.7622 -4.42039 565264 -194051 -15832.5 -316135 83046.6 -373803 13 11.0566
56 1 45.7993 1.68763 1.72047 -4.43833 632803 166601 260622 -201796 134461 273077 15 11.1992
57 1 49.4681 -0.00821613 56.5243 -4.43959 466345 81116.9 580983 -321346 -92345.4 -265532 13 11.1883
58 1 51.2179 1.69989 -0.0249724 -4.41349 -329479 729654 345403 11008.2 598700 637093 14 11.2116
59 1 51.2586 56.5018 1.7495 -4.41133 358995 -219591 317478 355694 318283 -261119 14 11.1291
60 1 49.4865 1.75712 1.62398 -4.40312 -59542.9 235872 -594622 211996 275584 239065 15 10.9584
61 1 52.9772 56.508 56.4365 -4.42282 408726 147760 299097 -179890 147541 584716 15 11.204
62 1 54.8033 1.70901 -0.0222322 -4.42473 225524 163710 822058 433441 137064 -277765 13 11.233
63 1 54.6856 -0.0160311 1.84121 -4.45226 440260 190841 937370 -53503.3 105042 232795 14 11.252
64 1 52.9421 1.7656 1.82175 -4.44042 581094 643651 922020 203545 -213096 497881 14 11.3818
65 1 56.5424 3.46419 56.4904 -4.41459 -258907 -30656.8 963350 447357 378219 -428881 15 11.1605
66 1 1.68705 5.24437 56.5384 -4.43317 -280198 -156821 2590.29 435305 528579 -481746 15 10.8857
67 1 1.74515 3.40772 1.73786 -4.41574 90726.5 -246495 -18923.1 273651 154817 108730 14 11.0425
68 1 0.0623476 5.3651 1.75037 -4.37115 -487048 248019 -972538 -140338 -586120 -4577.42 15 10.9361
69 1 3.413 3.55743 -0.0141012 -4.41823 -956475 -255964 -57308.6 426207 283163 249838 14 10.7618
70 1 5.27953 5.14794 -0.0230629 -4.37112 -628354 -788988 -481314 749727 86976.4 349186 16 10.7953
71 1 5.25603 3.6296 1.74877 -4.3844 396945 -739038 -1.77755e+06 307346 375138 739807 15 10.7216
72 1 3.39452 5.32674 1.80244 -4.44708 67491.5 362281 309575 -18752.1 2901.57 -122642 15 11.1232
73 1 6.95309 3.54531 0.0641396 -4.3469 -1.15855e+06 -1.33894e+06 -354141 417460 166413 319058 14 10.6221
74 1 8.75229 5.23241 -0.0141115 -4.42688 395155 488078 302625 189395 359579 214397 14 11.3287
75 1 8.66754 3.48559 1.80682 -4.36647 -90606 -228763 -209717 42272.1 74396.6 -12231.7 13 11.108
76 1 7.05495 5.39099 1.70183 -4.38255 -309218 -850846 -903406 280097 173255 225187 14 10.7053
77 1 10.6693 3.48986 0.0478347 -4.38382 654942 397289 -40006.2 -144584 -231380 238593 14 11.3535
78 1 12.3302 5.31007 56.4592 -4.3548 -969971 -1.05774e+06 647912 -479873 90147.6 -518846 13 10.8922
79 1 12.4423 3.50477 1.66668 -4.37338 -582560 169464 441308 -671084 -163489 -419754 13 11.16
80 1 10.7058 5.3703 1.75929 -4.38936 542595 -172145 -113104 39537.5 176338 -214466 15 11.2356
81 1 14.1532 3.6508 -0.00912139 -4.38877 102148 456692 -185529 -299587 858183 -371929 15 11.1994
82 1 15.9011 5.33633 56.4518 -4.3728 -854329 -480286 -126685 -876083 -52638 -361323 12 10.849
83 1 16.0441 3.39704 1.75097 -4.3747 -574918 -388934 529779 498721 408826 -411876 14 11.1287
84 1 14.1713 5.1912 1.7639 -4.38388 88679.4 -230285 -123243 -1.04905e+06 -92095.5 -820449 15 11.05
85 1 17.6122 3.49782 -0.00289587 -4.39863 -887548 288908 -685792 -81008.3 -202923 -258305 14 10.8177
86 1 19.4181 5.14924 0.1215 -4.37291 -315860 294169 344779 355750 126087 54560.6 15 11.278
87 1 19.2231 3.43328 1.78219 -4.38954 630939 349176 -513111 -244049 383724 423465 15 11.2339
88 1 17.5905 5.34767 1.62911 -4.3635 -188378 -330256 -830609 170762 216812 141087 15 10.8979
89 1 21.1431 3.465 0.0920916 -4.40644 790146 -94740.3 485845 538257 152550 -333778 13 11.3736
90 1 22.8923 5.30508 -0.0224046 -4.42156 -135090 94796.8 -369640 60452.1 166134 -415878 16 10.906
91 1 23.0357 3.58532 1.76746 -4.40199 -499429 -214854 -510867 300977 -286248 -383865 16 10.845
92 1 21.2285 5.25818 1.68138 -4.37854 -570114 320170 -709692 72107.8 -111047 -527955 13 10.9046
93 1 24.7544 3.60654 -0.0134437 -4.44882 39334.5 383615 -9072.7 19879.2 -94152.7 -352557 15 11.0442
94 1 26.52 5.36354 56.4892 -4.42772 -308699 345689 -213440 -35822.5 -377687 -288532 13 10.9498
95 1 26.4966 3.49065 1.75201 -4.40662 -351919 245245 -211366 -198035 218155 -353907 14 10.9961
96 1 24.7618 5.3734 1.69483 -4.42376 317420 -842682 -84473.9 -241727 114897 45612.4 15 10.873
97 1 28.2749 3.57823 56.4657 -4.41181 86212.1 204650 -12747.4 -223427 -229796 -493251 14 11.0875
98 1 30.0567 5.2918 56.4946 -4.42225 414307 -242069 -21981.5 -244636 428241 -427368 13 11.0269
99 1 29.9735 3.47378 1.64954 -4.44133 647093 686407 376777 145385 19041.7 -4545.8 15 11.3178
100 1 28.2017 5.30209 1.66613 -4.433 290833 194937 385639 -139383 -305368 124518 14 11.1404
101 1 31.9049 3.49192 -0.0233432 -4.39402 -98168.9 -742741 -894901 -168119 -770470 -208863 14 10.732
102 1 33.5713 5.30065 0.019226 -4.38088 -94318.7 -490743 -1.06974e+06 -186441 -484592 -241424 15 10.8731
103 1 33.6127 3.51236 1.70501 -4.40843 -432501 -390006 -13412 352954 -329096 -65625.6 13 10.8616
104 1 31.8963 5.18107 1.74073 -4.40132 -147670 -276456 -136911 306279 101524 82391.2 16 10.9881
105 1 35.4469 3.49235 56.4791 -4.39954 -350991 -351713 -579452 -124601 -332583 -362542 15 10.8331
106 1 37.1593 5.33118 56.469 -4.41295 -373678 -139882 331362 534335 166130 -14030.7 14 10.9913
107 1 37.1169 3.5586 1.75285 -4.43105 269096 201455 529536 51209.5 -505218 -612523 14 11.2073
108 1 35.3495 5.20646 1.69473 -4.42456 -286779 -25887.1 786844 412584 -123187 22203.3 15 11.0853
109 1 38.9322 3.60195 56.5035 -4.44764 510428 981879 956161 -264245 -248926 86369.8 14 11.4315
110 1 40.6668 5.34659 -0.0204329 -4.39496 -412727 -805769 -296937 -66724.7 -408010 50915 14 10.8117
111 1 40.6202 3.52519 1.78174 -4.42516 -396041 129836 -174338 9920.75 452338 10990.9 14 10.9525
112 1 38.9125 5.22466 1.87461 -4.40517 -84303.1 67893 374686 63298.5 -472936 218317 14 11.1891
113 1 42.2645 3.52171 -0.0241863 -4.4328 266990 213176 238409 148692 39996.3 -179592 14 11.1346
114 1 44.1225 5.29148 0.0803224 -4.38147 -49775.7 -307463 -351593 -492141 -463710 -497951 14 11.0179
115 1 44.0631 3.5028 1.7643 -4.37882 -495491 -3408.55 -135339 -758323 692183 125118 13 10.9839
116 1 42.2648 5.37624 1.75306 -4.38474 -378962 -569290 -600519 454445 -69580.2 62526.6 14 10.7977
117 1 45.8986 3.40895 56.5334 -4.40572 637020 -67594.2 -154927 413725 -239925 795833 14 11.1276
118 1 47.7731 5.19987 56.4194 -4.41552 -129077 -515234 -144804 -50689.7 -372743 596897 15 10.8874
119 1 47.7364 3.51551 1.66205 -4.40493 -423683 -69870.6 -465302 -81547.8 157052 -81629.6 13 10.8465
120 1 45.8868 5.21196 1.63648 -4.41141 -286786 188206 -85207.8 48918 -631374 464183 13 11.0077
121 1 49.4769 3.47525 -0.0278784 -4.4168 -195990 -382852 -120013 275795 598111 133249 15 10.8652
122 1 51.2791 5.19571 56.3959 -4.4199 554784 619112 314035 258550 -74299.4 262989 15 11.3319
123 1 51.2822 3.59908 1.77343 -4.40918 -238234 -215663 647883 -112349 -170049 -13378.7 14 11.1037
124 1 49.4312 5.20137 1.74465 -4.42482 -42404.6 -241652 270254 -282139 -51552.2 286564 15 11.1078
125 1 53.0741 3.48633 0.00288219 -4.4247 517987 -45844 335741 294006 -3461.48 -387760 13 11.1837
126 1 54.8437 5.24373 0.022506 -4.43976 492524 158375 680697 24707.9 -29330.5 96384.8 13 11.2091
127 1 54.8199 3.48762 1.72443 -4.41272 690169 399238 -738216 44683.3 -643013 236658 12 11.1085
128 1 52.9509 5.26773 1.67936 -4.41212 161252 -16051 176661 -622343 255249 -329780 13 11.1179
129 1 -0.00154264 7.03821 56.5218 -4.41381 225859 -315160 -401204 36826.5 -248695 594554 13 10.915
130 1 1.85753 8.76853 0.0181689 -4.37575 113696 -273813 -559128 -427344 -192219 670058 13 11.0104
131 1 1.71234 7.11037 1.62503 -4.37784 -286675 -952898 -323629 -408218 -315458 777975 14 10.8143
132 1 56.442 8.80179 1.67076 -4.45168 643867 70178 836345 58834.3 -209701 -162065 15 11.2379
133 1 3.55889 6.94218 56.4494 -4.40177 -126016 -504175 -38669.5 -475854 374368 -429581 14 10.935
134 1 5.1951 8.66405 56.5078 -4.33678 -901096 -296011 -1.60036e+06 -209208 -415057 -595927 13 10.7292
135 1 5.23026 6.9918 1.76498 -4.42175 -612773 -420490 88624.7 305706 34670.5 689580 13 10.843
136 1 3.54383 8.76022 1.77291 -4.41863 -296953 -514415 -242447 16873.1 -491311 747674 15 10.8215
137 1 7.07352 6.98513 0.0168315 -4.38754 520747 -738579 -697320 633163 393043 509861 14 10.9293
138 1 8.94681 8.79276 0.0180113 -4.39535 598042 79905.6 40499.5 38412.9 -611541 -784999 13 11.2092
139 1 8.93296 7.04477 1.82867 -4.38627 501479 -606690 311484 -419271 -37807.6 209943 15 11.1566
140 1 6.89916 8.78748 1.5867 -4.40462 694461 70469.5 277459 -134078 -330870 -206573 15 11.2907
141 1 10.6505 7.01845 56.4988 -4.40581 46957.7 -61786.5 -72620.3 859629 -526523 -155465 13 11.0692
142 1 12.4756 8.79212 56.4806 -4.39533 33708.4 -104052 -53433.1 203189 -758576 -208865 14 11.0649
143 1 12.4203 7.06592 1.7671 -4.41953 -161830 161903 -303005 -718652 504288 -242520 14 10.9598
144 1 10.5673 8.81747 1.76713 -4.37771 240419 80448.4 -193568 -437845 -852496 -533139 13 11.1515
145 1 13.9645 6.94402 56.4614 -4.3709 -463020 -74527.9 594125 -14159.9 -298821 -19555.5 14 11.2057
146 1 15.8927 8.86068 56.4481 -4.41733 180523 486056 602007 290268 179956 309297 14 11.3023
147 1 15.726 7.00778 1.68379 -4.4139 265428 -177664 575605 -47834.9 210064 -377654 13 11.2165
148 1 14.1161 8.83966 1.6454 -4.40126 -484037 163182 292711 -15692.4 -251110 192688 13 11.0497
149 1 17.5864 6.98054 -0.03023 -4.37268 434921 -443596 -29397.6 -621996 90219 447623 14 11.1511
150 1 19.3969 8.91507 0.0184101 -4.35713 -573572 -190021 -565898 -267168 -6340.34 207704 13 10.9211
151 1 19.4754 7.14902 1.66422 -4.37286 -466056 -717786 -308415 -523618 -51192.2 256108 15 10.8385
152 1 17.6758 8.81251 1.65451 -4.41837 202923 325884 29974.1 181859 800337 199736 15 11.1265
153 1 21.2264 7.15243 -0.0280952 -4.41021 -22447.1 31585.3 -9121.56 -180326 419323 113585 15 11.072
154 1 22.9292 8.80384 0.0226677 -4.39609 -737930 224664 -613377 -224916 -304755 -237299 14 10.8717
155 1 22.9552 7.00511 1.76944 -4.43416 -122953 171606 82266.8 -302373 150184 130447 15 11.0153
156 1 21.0718 8.84488 1.7472 -4.36622 -545771 -1.02003e+06 -852680 -848523 155622 274848 13 10.6867
157 1 24.6543 7.05056 56.4795 -4.41826 402872 -865482 -489270 193090 -43940.3 -258787 15 10.8287
158 1 26.4304 8.83961 56.4716 -4.42035 -22785.4 44341.5 -739402 16973.7 78384.6 39069.8 14 10.8786
159 1 26.484 7.07351 1.70338 -4.40765 -565786 -79441.7 659464 -513626 152826 -149364 13 11.0179
160 1 24.6699 8.76877 1.65468 -4.42857 42620.5 552555 383366 70615.1 -111229 -28883.9 15 11.2122
161 1 28.3313 7.06831 56.5018 -4.40309 -23724.1 -569066 -114153 -578398 36721.3 -234156 14 10.9226
162 1 30.0071 8.76738 56.5364 -4.42379 -587609 -357109 168359 -654093 243422 -265299 13 10.9262
163 1 30.0646 6.92331 1.74409 -4.41474 247447 250922 -314876 -327790 -241973 360483 13 11.0481
164 1 28.2282 8.7084 1.63032 -4.40364 442583 -221011 -1149.04 -487654 372363 11169.5 14 11.1325
165 1 31.8173 7.06251 -0.0102358 -4.44579 249473 8867 571255 25697.1 11888.1 -594531 16 11.1457
166 1 33.5838 8.78399 56.4841 -4.46085 776525 817794 706067 -222770 -90731.3 -261107 17 11.4146
167 1 33.6601 6.9376 1.67979 -4.40245 455003 -501733 -31739.1 -189414 -41515.1 -534814 14 11.0486
168 1 31.7653 8.76997 1.74298 -4.41409 402053 -476772 37829.1 16573.1 -101913 135154 13 11.0107
169 1 35.463 6.98106 56.4328 -4.39811 -414749 -334426 357108 -106879 -142768 -502390 15 11.0062
170 1 37.0352 8.76278 56.4532 -4.4321 -88558.6 -208290 102233 -446170 381996 -37847.6 15 10.9848
171 1 37.0747 7.05368 1.71592 -4.42132 99086.4 687807 269167 505443 226399 -218727 15 11.2459
172 1 35.3693 8.70233 1.67239 -4.3919 -668841 162056 -129949 445730 691135 -156063 13 10.9592
173 1 38.8962 7.10236 0.0443067 -4.41164 -537668 -127607 -174497 -406496 45945 -487596 15 10.871
174 1 40.552 8.82077 56.4645 -4.40874 -698459 -330905 -453294 -329520 -68930.1 -369806 13 10.7907
175 1 40.6232 7.05126 1.70712 -4.3773 -1.48593e+06 -722990 -899956 587180 -440866 -520559 14 10.5662
176 1 38.9079 8.84677 1.70592 -4.39703 -257149 -927880 -298427 -118710 230541 -526318 13 10.7889
177 1 42.3552 7.10512 0.0146209 -4.43335 17164.3 -78260.4 -123421 -207997 131104 -160118 15 10.9698
178 1 44.229 8.82357 -0.0234725 -4.41728 -116722 -263975 288068 -368677 32095.7 243989 15 11.0007
179 1 44.1908 7.05084 1.64868 -4.40773 276942 -722124 -140474 -524106 -440942 -353395 14 10.9514
180 1 42.332 8.84034 1.69563 -4.42774 126670 -532922 -440261 2949.51 -179776 -128316 14 10.8129
181 1 45.887 6.90259 56.3727 -4.39401 -391826 61947.5 -2933.19 -509234 61701.4 182280 14 11.0352
182 1 47.6859 8.61807 -0.00818263 -4.39588 -143885 179565 -113049 353465 96612.4 445514 14 11.1712
183 1 47.6624 6.96618 1.68633 -4.43166 506297 -112055 349511 -419240 -161833 911170 15 11.1558
184 1 45.8481 8.75829 1.81899 -4.3701 -172453 -320264 -230875 -404283 168822 866060 13 11.0223
185 1 49.4474 6.92377 56.368 -4.37664 -701309 -406781 -165024 -85506.2 -341883 -85064.1 14 10.885
186 1 51.2817 8.6909 56.5385 -4.42301 628298 271115 112698 321049 123797 436175 15 11.256
187 1 51.1862 7.05003 1.7106 -4.39912 489057 -359773 426892 617965 -101747 565482 14 11.1859
188 1 49.4193 8.62618 1.68598 -4.38261 -819994 271961 310457 407120 -184204 513020 14 11.1557
189 1 53.1524 7.10143 56.5087 -4.38124 24084.2 -224432 -179302 28366.9 40678.7 287660 14 11.0559
190 1 54.7671 8.83147 56.4236 -4.40402 -170113 125785 317829 -340980 -22420.2 328938 15 11.1108
191 1 54.7939 7.01846 1.73358 -4.43002 -305149 446424 465175 -229319 -245603 -371366 14 11.1388
192 1 53.0102 8.78894 1.74915 -4.43808 374127 69389.3 31461.3 -165061 -70319.4 182743 14 11.0393
193 1 0.0316125 10.676 0.019975 -4.41019 560369 57117.5 -32101 287317 -108609 -185732 14 11.1765
194 1 1.84599 12.3993 0.0204066 -4.41779 395099 -71756.6 -414400 -173792 -91016.6 -558558 15 11.0198
195 1 1.78113 10.525 1.72761 -4.44017 13985.4 674558 -287239 178658 69921.7 -342450 15 11.0376
196 1 56.4957 12.3034 1.73951 -4.40356 432260 -448526 -309764 -389395 -80418.3 -313905 12 10.9557
197 1 3.53429 10.5278 0.0879039 -4.40588 -321763 78574.1 -68019.6 -272615 -3148.71 -27283.5 13 10.9911
198 1 5.25757 12.358 0.00869903 -4.44011 290969 13340.7 243187 233527 -1478.83 185367 14 11.0619
199 1 5.22622 10.5639 1.76295 -4.4128 -246440 283687 -104211 299383 -43535 432674 14 11.0328
200 1 3.52648 12.3786 1.75964 -4.3993 -517600 -167562 -1.04637e+06 158794 111978 -465127 14 10.7455
201 1 7.03704 10.5636 56.5417 -4.4151 1.09731e+06 414439 127925 5156.33 -554501 109965 15 11.3643
202 1 8.7914 12.3987 0.0713883 -4.39406 219275 -136031 838483 427342 288385 542041 14 11.2783
203 1 8.72784 10.615 1.67408 -4.37517 -46171.1 583255 -825930 361295 466396 272113 12 11.0601
204 1 7.02625 12.427 1.74719 -4.3992 178262 -168202 -391996 573129 195226 588715 13 10.9819
205 1 10.5985 10.6348 0.0250358 -4.44855 312505 978611 605676 -284314 29127.3 251055 14 11.3453
206 1 12.3059 12.5107 0.0182607 -4.39102 -279266 32890.7 195639 314745 114436 120003 13 11.0644
207 1 12.4243 10.6474 1.66897 -4.40752 -660120 -145451 17945.1 -212399 93544.4 99456.7 14 10.9188
208 1 10.6921 12.4214 1.83391 -4.36768 77740.3 -177991 -1.03028e+06 492022 -426088 391613 15 10.9259
209 1 14.189 10.5558 56.4588 -4.38634 -94699.6 -801755 -188822 -377532 -6606.35 1.21126e+06 14 10.9743
210 1 15.8928 12.3014 0.0137828 -4.36494 -822098 -614672 682721 -281413 -623433 419460 13 10.9884
211 1 15.849 10.5889 1.74016 -4.43262 298449 139145 -63022.2 -62888 58898.6 487074 14 11.0326
212 1 14.0848 12.3305 1.84295 -4.40656 -176270 -386594 317565 -305592 125483 620476 14 11.0303
213 1 17.5652 10.5899 56.5156 -4.4195 52561.9 -257484 461949 368755 -100179 302186 14 11.0847
214 1 19.4467 12.3898 56.5335 -4.44245 661059 520523 788599 -59863 216317 310090 14 11.3796
215 1 19.3452 10.6177 1.7327 -4.40229 -266823 20544.1 -767938 66308.6 516548 -640251 14 10.8608
216 1 17.5882 12.4508 1.7847 -4.42388 441039 647298 127753 249191 -440046 160486 13 11.2347
217 1 21.0816 10.5788 0.0402523 -4.39587 -1.13998e+06 -373151 204606 -665818 330145 60856.8 14 10.877
218 1 22.8358 12.2301 0.0458895 -4.40439 357095 183880 375528 114308 4309.79 261764 14 11.3205
219 1 22.9005 10.5576 1.74553 -4.4148 301425 -407868 -123283 -168087 -374506 655698 12 10.9731
220 1 21.2069 12.3968 1.83131 -4.38964 -317206 -480821 -669188 -462170 217846 -35536.3 15 10.8213
221 1 24.7981 10.6913 -0.00166322 -4.38068 -1800.13 -223321 -55993.1 62379.3 159238 -613989 15 11.0736
222 1 26.5205 12.3494 -0.0210569 -4.40595 344959 -382131 314892 -655839 76650.7 -172688 13 11.12
223 1 26.508 10.5572 1.70866 -4.43622 85769.3 567341 130374 35505.3 123923 -117998 14 11.1254
224 1 24.6768 12.2623 1.76422 -4.38614 908961 -358495 -474918 -143214 -44050.8 -168236 14 11.113
225 1 28.2715 10.5776 0.0179688 -4.42526 -244667 -116535 -683868 24759 143434 -23674.4 14 10.7646
226 1 30.0515 12.3075 0.0591114 -4.44662 344868 692565 429684 -40492.2 85110 -317234 14 11.2304
227 1 30.0585 10.4763 1.79459 -4.43592 -52671.1 52950.9 29971.7 425512 -127774 127561 14 10.9833
228 1 28.3 12.2716 1.7776 -4.42039 13986.6 696817 321305 -499547 97436.6 -248967 12 11.2046
229 1 31.7321 10.5209 56.5007 -4.42543 42790.4 -11807.5 111922 -69880.4 -306030 -389884 14 10.9946
230 1 33.523 12.2644 56.5134 -4.4439 53185.7 134463 215981 -150286 498554 97434.1 15 11.1293
231 1 33.5216 10.5034 1.62855 -4.42737 761.615 -283600 -426505 -75574.5 182874 336091 15 10.8486
232 1 31.8216 12.2975 1.78525 -4.38716 -448527 -184216 -339722 -596099 66640.3 178359 13 10.9184
233 1 35.3395 10.6281 56.5217 -4.42091 124194 -244945 18293.9 141097 80011.6 310401 15 10.9921
234 1 37.0771 12.3553 0.0169519 -4.4443 282078 129571 598273 -166863 -54991.3 227152 13 11.1799
235 1 37.1399 10.5447 1.66946 -4.41907 94280.1 612559 -497710 348406 249411 379730 14 11.0718
236 1 35.2547 12.3065 1.77132 -4.37678 -216207 -577154 -800951 416986 456731 -30688.2 14 10.8265
237 1 38.8032 10.6189 56.4632 -4.43095 -108992 359328 -262783 389834 162669 160852 15 10.9764
238 1 40.7011 12.3244 56.5005 -4.42782 329440 139854 -58118.4 -391293 181771 430149 13 11.0716
239 1 40.5898 10.5188 1.64255 -4.41093 -188369 -100240 -2394.79 -190444 -139183 7039.21 14 10.9811
240 1 38.9361 12.4946 1.68034 -4.39197 -171783 254195 -189710 -575045 35249.6 231625 14 11.0514
241 1 42.4596 10.524 56.484 -4.43582 307407 97501.6 270284 -9604.93 113257 253478 14 11.0932
242 1 44.1133 12.3177 56.4501 -4.4129 -308570 36753.2 134719 -55888.6 12500.4 464510 15 11.038
243 1 44.1452 10.5728 1.71996 -4.42403 307871 -485254 -112705 11221.6 -175317 -46473.4 13 10.9305
244 1 42.437 12.3752 1.76719 -4.41339 173885 49698 -80595.4 -34166.2 -223420 730908 13 11.0709
245 1 45.9817 10.4088 56.5067 -4.40551 282262 -298440 94806.7 -683000 136571 -153553 12 11.0643
246 1 47.7127 12.2851 56.5387 -4.39771 -686726 152042 -653109 -53497.8 38888.5 579123 15 10.8181
247 1 47.7093 10.4879 1.7641 -4.44489 567470 885335 586510 173810 63033.7 250293 13 11.363
248 1 45.9571 12.2769 1.57789 -4.42314 605641 660065 272286 -29483 745586 350752 13 11.3636
249 1 49.5259 10.5989 56.5349 -4.39916 590836 116477 -98412.2 -29290.9 -73216.1 -49569.5 14 11.2019
250 1 51.2027 12.362 56.5311 -4.39711 -676603 -314056 -896897 -390377 -479368 -212541 15 10.6871
251 1 51.2208 10.58 1.74379 -4.40915 -744176 388447 -60813.1 -86997.7 126536 308657 14 10.9645
252 1 49.4999 12.3213 1.6857 -4.43372 -11564.6 -362897 -66785.2 277988 287988 -124983 14 10.8768
253 1 53.0221 10.5804 0.0846235 -4.39012 -113154 277471 3037.54 -57024.5 -335726 -222407 15 11.1393
254 1 54.7813 12.2554 56.4657 -4.4108 326255 160336 756299 -123120 -446554 -146618 14 11.2869
255 1 54.7283 10.5564 1.80139 -4.41105 -559817 433122 260654 -60983.5 -608846 1632.82 13 11.0425
256 1 52.8899 12.2745 1.75049 -4.40237 455988 -432780 211388 -81361.8 -347364 -236060 16 11.1461
257 1 56.4666 14.1027 56.5362 -4.43804 -145241 460293 -80978.7 -112662 -360010 -95847 14 11.0309
258 1 1.68736 15.8311 56.5014 -4.41777 477825 -295029 -346911 -69116.2 -205137 -77226.5 15 11.0085
259 1 1.63462 14.0513 1.68879 -4.38891 454711 -379899 -584767 211445 -76191.8 -229962 15 11.0174
260 1 56.49 15.8458 1.71782 -4.41283 -879331 -374214 -749889 -298281 138324 -169055 16 10.6328
261 1 3.62837 14.146 56.4677 -4.37363 -634030 -507837 -579020 -222250 181755 121175 15 10.8352
262 1 5.3608 15.814 56.4775 -4.40417 -546624 -537867 -650430 -21277.7 -189143 311681 14 10.7253
263 1 5.32093 14.166 1.68582 -4.41041 -720263 -372361 -109323 699609 358201 -107651 14 10.8455
264 1 3.60688 15.8508 1.71659 -4.41482 668798 468.758 933076 301549 22152 480381 16 11.3928
265 1 7.10769 14.0568 0.0482214 -4.39039 -543870 -701900 193992 441517 543574 591392 16 10.8992
266 1 8.75234 15.8558 -0.0149742 -4.44734 392779 256184 454006 75120.9 182414 -10479.5 14 11.1499
267 1 8.91089 14.1692 1.82641 -4.41863 -155999 -32766.1 112332 -413525 -40906.2 -86113.3 13 10.9685
268 1 7.0899 15.9351 1.77472 -4.41868 -576491 -21889.3 -377749 434639 508584 76638.9 15 10.8362
269 1 10.5928 14.0863 56.5326 -4.40318 -266149 -231968 788004 511376 79140.3 -4552.85 14 11.1586
270 1 12.3081 15.9272 0.0147781 -4.43372 116095 692139 -197270 -303458 -176278 406273 13 11.1025
271 1 12.4956 14.2226 1.81097 -4.42258 430280 -218449 48727.3 -247654 136933 -301638 14 11.047
272 1 10.5503 15.8788 1.73078 -4.43513 -46142.3 247593 728933 -620498 252593 71554 15 11.1481
273 1 14.1907 14.0999 -0.000135998 -4.43213 525546 740170 128378 -157699 105597 -423798 13 11.2657
274 1 15.8597 16.0296 56.4693 -4.37515 -425189 -512356 -611954 -317316 330517 -241209 14 10.8136
275 1 15.8154 14.1671 1.79992 -4.43293 13028 454342 409224 98422.8 -411895 -368170 14 11.1654
276 1 14.1263 15.9629 1.67688 -4.40767 -565124 -431829 442580 -585245 -63634.6 -212843 14 10.945
277 1 17.4639 14.0688 56.4639 -4.40867 567112 363591 283008 -467571 279653 13963.2 15 11.2963
278 1 19.3847 15.9095 56.5347 -4.41784 204494 -57556.6 -429858 302434 215150 -140706 12 10.9412
279 1 19.4015 14.2506 1.78204 -4.37456 -616729 53778.5 228500 20924.1 -303146 224581 14 11.1059
280 1 17.6395 15.8502 1.658 -4.42571 -137600 111561 744882 598703 131497 448171 14 11.1747
281 1 21.1494 14.123 0.0350941 -4.42168 299717 -296206 -141762 -211257 -284270 -376471 14 10.9728
282 1 22.9713 15.9041 0.0521985 -4.41529 -244438 34568.1 -15048.9 479920 -152626 135847 14 10.9955
283 1 22.8435 14.1037 1.76983 -4.37889 -766391 -888671 -438049 -451898 305440 -276468 14 10.7421
284 1 21.181 15.8554 1.69153 -4.39001 -690521 -848415 -560468 -344136 128981 206870 14 10.6831
285 1 24.6217 14.1606 0.00672273 -4.39148 489939 429031 167246 253269 32473.7 -875503 14 11.3311
286 1 26.3575 15.9483 56.5133 -4.40089 437365 39843.1 -681408 105916 191263 -765246 14 11.0432
287 1 26.4201 14.1249 1.84836 -4.41536 67593.9 305287 770285 89611 83802.7 -173042 14 11.2738
288 1 24.7147 15.7684 1.71429 -4.36989 -805661 -330344 -658983 18673.1 -67258 -990911 13 10.7796
289 1 28.2202 14.1632 0.00334993 -4.40548 239793 302653 370323 -877783 -654751 -157224 12 11.2409
290 1 29.94 15.8164 56.5278 -4.408 -213740 30933.9 214060 -492087 28397.3 6673.77 13 11.0515
291 1 29.9321 14.1127 1.75377 -4.42547 575113 106413 291077 -424413 -319645 300453 13 11.1734
292 1 28.1203 15.8618 1.77277 -4.40478 633643 -367373 227784 174818 -49324 -875200 13 11.1779
293 1 31.7887 14.1668 56.4904 -4.41151 532266 178403 419815 -176491 -359592 363378 14 11.2884
294 1 33.5737 15.8079 0.0324808 -4.40961 6222.4 -199268 563695 411156 -476837 -94970.6 15 11.1154
295 1 33.513 13.9454 1.81913 -4.35817 -483021 -499863 -328852 -75481.4 -217460 120261 13 10.9308
296 1 31.7103 15.8364 1.77769 -4.4371 355711 331602 644791 -264829 -122207 -60478.7 12 11.2225
297 1 35.2265 14.1152 56.5054 -4.42337 110960 226685 547636 423363 -459404 -98066.5 14 11.1918
298 1 37.0424 15.8827 56.467 -4.39256 -229988 38229 -705681 95637.8 -890016 455571 14 10.919
299 1 37.0336 14.1792 1.73629 -4.44281 584795 28146.6 732620 155169 34276.2 342378 14 11.2301
300 1 35.3153 15.8963 1.73255 -4.42988 361846 390830 570019 276191 -83376.5 -311249 15 11.2544
301 1 38.8365 14.1169 56.4861 -4.42423 1.10065e+06 -338040 18595.7 -222527 -73572.4 334468 14 11.186
302 1 40.6358 15.8778 56.3756 -4.40974 23692.3 806391 417310 42317.3 55351.6 55254 13 11.2565
303 1 40.6193 14.1341 1.7297 -4.41544 58955.3 281173 1.15614e+06 -784595 294808 -22323.8 13 11.3268
304 1 38.8057 15.8606 1.71766 -4.39351 -232806 -731604 161747 388151 319795 56613.1 15 10.9205
305 1 42.4267 14.0125 56.5187 -4.39766 -276309 -434882 -293200 34834.5 61108.6 332948 14 10.8458
306 1 44.1773 15.8832 0.0677817 -4.3983 -707344 121571 -590184 -140676 441281 83150.7 14 10.8366
307 1 44.1235 14.129 1.7768 -4.42591 221301 17348.3 94260.6 -285260 -231316 776740 14 11.0816
308 1 42.3799 15.8649 1.58195 -4.38495 -402229 80030.5 768020 -213567 666730 -27305.1 14 11.2404