ITEM: TIMESTEP
3000
ITEM: NUMBER OF ATOMS
16376
ITEM: BOX BOUNDS pp pp pp
0.0000000000000000e+00 5.6512000000000000e+01
0.0000000000000000e+00 5.6512000000000000e+01
0.0000000000000000e+00 5.6512000000000000e+01
ITEM: ATOMS id type x y z c_peatom c_satom[1] c_satom[2] c_satom[3] c_satom[4] c_satom[5] c_satom[6] c_coord c_voro[1] c_keatom
1 1 56.4471 56.4913 0.0201846 -4.44155 295367 58156.8 130427 -76137.7 306957 215239 14 11.0927 0.10013
2 1 1.65245 1.7665 56.4494 -4.41849 12421.1 689890 185020 138001 62638.2 -96529.2 14 11.1724 0.00429247
3 1 1.71739 0.019757 1.85845 -4.434 29380.2 -2355.74 294581 -220859 24649.5 115150 15 11.0334 0.0237658
4 1 56.5147 1.82081 1.74435 -4.45146 297154 263569 268523 214907 100549 126365 13 11.0896 0.0233312
5 1 3.48464 0.0438192 0.0182975 -4.40939 758775 -621144 -422455 -165130 -288683 -314491 12 10.9537 0.0107178
6 1 5.34097 1.82429 0.0333609 -4.42496 395928 252835 82920.8 -107397 -143636 446748 14 11.1481 0.028554
7 1 5.3432 0.0099813 1.72813 -4.4311 -122609 -210124 -178897 17759.4 281499 -123884 16 10.8893 0.0507357
8 1 3.54017 1.70088 1.70489 -4.42628 1.05716e+06 436848 537706 101286 223885 -272090 14 11.4363 0.0252026
9 1 7.01743 56.4724 0.0159852 -4.40692 -463902 643412 -395037 -207070 -118068 -102254 13 10.9978 0.00756821
10 1 8.91658 1.74081 56.4164 -4.42944 636079 112371 392519 283053 65697 -204526 15 11.2424 0.0141768
11 1 8.74359 56.4855 1.70418 -4.38568 -357918 -202789 -783163 276576 743729 -967405 15 10.8512 0.00394613
12 1 7.07493 1.80769 1.75501 -4.42123 -329017 -98526.5 188856 200167 -408525 -202935 13 10.9835 0.0387908
13 1 10.6074 0.0283394 56.5066 -4.39447 -1.1737e+06 -1.27711e+06 -93987.1 -142702 252598 -49259.1 13 10.577 0.042507
14 1 12.3 1.71035 56.5001 -4.40713 -574493 -315386 -726870 -137183 -273329 -155052 14 10.7135 0.00763644
15 1 12.3854 56.4499 1.77717 -4.40513 -172235 -857484 -800384 228296 225295 -51549.1 14 10.688 0.035937
16 1 10.6391 1.69904 1.7893 -4.42312 -368799 -258278 -712621 193167 543218 -173885 15 10.7442 0.00368676
17 1 14.0891 56.4839 56.5013 -4.3988 -696574 -289061 -138336 785585 9188.83 277458 14 10.8503 0.0565437
18 1 15.9067 1.80035 0.0689915 -4.4277 269010 723211 95777.4 79714.7 -541590 132228 14 11.191 0.0199426
19 1 15.9049 0.0188204 1.77586 -4.43168 478053 -35377.5 40071 -432017 -90110.1 -106446 14 11.0682 0.0234386
20 1 14.049 1.78411 1.71479 -4.44342 216190 234099 31331.1 277885 -52027.2 460421 14 11.0402 0.00306018
21 1 17.7247 0.0477139 56.498 -4.41762 285979 563046 419517 90023.3 -392550 -524400 14 11.2716 0.00625504
22 1 19.4492 1.78035 56.4704 -4.43313 478131 651812 71456.5 -334944 -65399.7 71833 14 11.2253 0.045264
23 1 19.4025 56.4638 1.67157 -4.41711 -513683 221081 -98317 -437874 -298614 -189776 14 10.9402 0.0385557
24 1 17.6163 1.74006 1.75477 -4.41132 257949 404169 110467 -285698 -600751 -150711 12 11.2012 0.0559105
25 1 21.1519 56.3944 56.4576 -4.42213 -172492 -175479 130317 -79318.3 332541 -263435 14 10.99 0.0694685
26 1 22.9095 1.66437 56.4224 -4.38757 53349.4 -84374.4 24252.3 659657 32102.8 -928967 15 11.0942 0.0160282
27 1 23.0216 0.0115511 1.83789 -4.41555 -288441 -52717.2 -296142 193896 -96587.4 270953 16 10.9294 0.0499097
28 1 21.1444 1.64711 1.72287 -4.42912 486347 309526 234161 -189700 -162288 235757 13 11.2667 0.13689
29 1 24.7086 0.0121213 0.0519954 -4.41095 85102.4 -448113 -201764 69878.1 -137442 12043.1 14 10.9285 0.0507179
30 1 26.4794 1.79506 0.0122022 -4.41964 -546586 574862 -223824 -235747 -373682 159778 14 10.9986 0.0607488
31 1 26.5176 56.5094 1.75708 -4.41383 -196483 -69027.6 132830 -926246 194644 75352.2 14 11.0649 0.101422
32 1 24.718 1.84173 1.73217 -4.4079 -552123 -589235 -85709.8 -399138 186661 -306099 15 10.8094 0.0234115
33 1 28.1992 0.0300736 56.4822 -4.42405 418932 422897 551003 76341.7 550120 -590668 13 11.3168 0.0342785
34 1 30.0217 1.83012 56.4889 -4.41474 222548 -286389 -639960 100973 -554299 416408 13 10.9133 0.082508
35 1 30.0146 0.21672 1.7905 -4.36045 -284711 -207012 -488047 211045 222669 283399 14 11.0281 0.0122305
36 1 28.1492 1.68441 1.7237 -4.33852 -765905 -1.15634e+06 -806386 -95272.4 -189808 298309 14 10.666 0.00148164
37 1 31.8511 0.0779468 56.4772 -4.38635 -859827 200080 -206134 -208721 -794008 -212866 15 10.9405 0.0305009
38 1 33.5486 1.73424 56.3868 -4.41491 -500672 -5011.42 519210 -930072 430421 -44585.6 14 11.0603 0.0472999
39 1 33.5329 56.4241 1.67396 -4.42083 270549 359014 163084 278139 -480661 -174433 14 11.1839 0.0342016
40 1 31.8316 1.79057 1.67172 -4.41518 505591 276850 55340.9 -301130 -137326 68838.8 13 11.2041 0.0275022
41 1 35.4606 56.5047 56.4791 -4.42508 251413 -447961 -72033 -46782.9 267198 313828 14 10.9666 0.0420639
42 1 37.1296 1.74351 56.4001 -4.37963 -437187 -848092 -608331 -405396 573475 204004 14 10.7564 0.0338299
43 1 37.1625 0.106677 1.82955 -4.3958 -423219 -54882.8 -353917 -198505 -792671 336043 15 10.9104 0.00913413
44 1 35.3616 1.80802 1.672 -4.43147 281123 -31156.9 591508 92157.4 226363 522409 15 11.2511 0.144409
45 1 38.8321 56.503 56.504 -4.44698 -218558 187226 432453 627911 -190266 95383 15 11.0675 0.0714448
46 1 40.6139 1.78441 56.5088 -4.45558 540270 169177 805306 48482.5 -123750 -245428 17 11.2359 0.0341369
47 1 40.6317 0.0535409 1.79221 -4.44997 357428 288631 325858 234298 455350 -73312.7 14 11.1104 0.0100426
48 1 38.867 1.83955 1.82811 -4.42231 93160.6 66843.4 354894 -50409.1 115840 757813 13 11.1165 0.0252144
49 1 42.3726 0.0534878 0.0337314 -4.43878 -171966 261953 717864 -37232.4 81461 227160 15 11.1261 0.0227389
50 1 44.1002 1.72771 0.0157259 -4.40847 -379188 -87125.6 -11240.6 -121920 -531800 -56890.3 14 10.9588 0.0336386
51 1 44.1917 0.0738984 1.84447 -4.40266 152054 -126122 -365141 -233017 -313178 154019 14 10.9967 0.0273034
52 1 42.4245 1.78165 1.84275 -4.40669 -624015 -778127 -368531 124113 -278876 -27124.3 13 10.7145 0.0706847
53 1 45.9378 56.3706 56.4729 -4.40464 -193650 99054.5 -100213 143499 -383508 -310334 14 11.0237 0.0217746
54 1 47.7714 1.687 0.0348958 -4.39787 86071.8 -365662 -581804 -163876 357696 198599 15 10.9194 0.0248689
55 1 47.6428 0.0331827 1.72306 -4.41105 657764 -425408 -108696 272522 63500.4 -48827.6 16 11.1079 0.050031
56 1 45.9213 1.76726 1.68806 -4.41111 -27158.8 -602946 28942.5 6681.8 -384662 400109 13 10.9508 0.0838599
57 1 49.5484 0.0336291 56.5019 -4.40164 -680580 -1.23042e+06 -214411 114035 -45277.6 -88906.7 14 10.6496 0.0547966
58 1 51.2414 1.75626 56.4813 -4.42301 -536794 -593730 -554596 -365867 -116557 -257028 14 10.6647 0.0166105
59 1 51.2779 0.0501502 1.825 -4.40033 -195295 -570681 -577274 -222994 -449327 423407 14 10.7874 0.0163567
60 1 49.5088 1.7866 1.75565 -4.43863 371732 74810.3 145303 219663 -222218 -405850 13 11.0847 0.0185585
61 1 53.019 56.4976 56.46 -4.44409 -31585.3 122602 786187 386651 -119018 -258178 15 11.1391 0.0283652
62 1 54.6716 1.77699 56.4716 -4.41225 -227112 -593549 -682374 -83429.2 336405 -347396 15 10.8051 0.119101
63 1 54.7585 56.5081 1.79074 -4.42486 -309424 8313.12 -500285 258779 173516 233780 16 10.8553 0.0270793
64 1 52.9586 1.79145 1.669 -4.37923 -1.13832e+06 -416464 86652.5 -1.1348e+06 264796 211840 15 10.8156 0.00384395
65 1 56.4535 3.55952 0.0155318 -4.39489 -116727 -1.04391e+06 -777968 668382 239471 -162581 12 10.7262 0.0932305
66 1 1.72951 5.35677 0.0200203 -4.4182 -376044 80411.1 -647669 -96279 -167272 418.648 14 10.9131 0.171907
67 1 1.77069 3.58125 1.80148 -4.4203 -172643 81578.1 9735.39 -156996 239324 42575.2 14 11.0236 0.0676163
68 1 56.4697 5.21928 1.722 -4.41367 83363.2 -43700.7 -610464 489624 -169096 -315069 15 10.9408 0.0497554
69 1 3.46578 3.58625 0.0775021 -4.41876 677519 393488 -198646 215109 718389 -385798 14 11.187 0.0114045
70 1 5.36567 5.34302 0.0261372 -4.40144 -317647 -1.00426e+06 -495347 133546 93376.6 -68330.8 14 10.692 0.0243145
71 1 5.41621 3.60381 1.71999 -4.40969 121379 -183406 179755 576454 -420090 -156380 13 11.0837 0.0142202
72 1 3.59517 5.22686 1.78292 -4.40105 -291425 -1.03077e+06 -496118 138620 87212.7 -235900 13 10.6754 0.0123903
73 1 7.07863 3.58856 56.3798 -4.38505 -290600 29527.3 -148136 -144874 403848 260083 14 11.0258 0.00118082
74 1 8.81658 5.38448 0.0149986 -4.39642 -499885 -207892 -471704 -349733 -106254 910.334 14 10.8391 0.00954956
75 1 8.92814 3.48186 1.80493 -4.40318 -198389 37766.4 206501 -532611 -72463.4 391064 14 11.1075 0.011218
76 1 7.14119 5.35674 1.72744 -4.42214 -60767.6 57362 -656604 -526935 359337 410233 14 10.8816 0.019039
77 1 10.6405 3.56456 0.0190535 -4.41776 -572601 234074 -496294 -282872 18391.7 -453704 15 10.8452 0.000149588
78 1 12.3432 5.299 0.0141488 -4.40103 -930172 -974273 -413908 -457761 -78392.5 -409477 12 10.6096 0.0588699
79 1 12.3243 3.49739 1.73312 -4.43952 -903798 -71838.2 -117076 -3613.32 179374 209779 15 10.7849 0.0622674
80 1 10.5242 5.26333 1.70769 -4.40169 -489426 -847645 -36435.6 -99229.4 -190467 -84656.1 14 10.7822 0.0109559
81 1 14.1125 3.605 0.117026 -4.41084 -96134.8 -1571.04 -459987 256059 -142680 -116990 15 10.9252 0.0188514
82 1 15.8538 5.41094 0.0568441 -4.42459 583586 -645223 -70953.7 89013.6 -125886 260908 14 10.9625 0.0322805
83 1 15.8888 3.66872 1.72081 -4.41847 10290.9 617533 -462219 22019.3 -61835.3 264123 14 11.0744 0.0638445
84 1 14.0011 5.31266 1.79267 -4.37849 -490493 -1.28863e+06 -1.28671e+06 141096 -51287 -560377 13 10.5047 0.027669
85 1 17.6109 3.65232 0.00417491 -4.40588 -227310 645059 -273041 -157553 -193413 -276025 12 11.0656 0.0399886
86 1 19.5116 5.29599 56.4904 -4.42743 985067 480619 -36233.8 -339710 89447.4 239085 13 11.2799 0.0233505
87 1 19.456 3.5579 1.69366 -4.43674 798356 564870 297341 170948 -300515 245795 15 11.3504 0.11729
88 1 17.7335 5.34276 1.78303 -4.42577 580591 -55792.3 127373 -319823 -2505.08 -386548 14 11.1064 0.0252643
89 1 21.345 3.52387 56.493 -4.41314 205620 316127 255143 25001.1 200121 -89577 14 11.1957 0.0271312
90 1 22.9261 5.39575 56.505 -4.40687 -285792 -322729 383808 880019 -190629 -252299 14 11.0351 0.0552655
91 1 22.9539 3.48623 1.77246 -4.40365 -502050 560326 -574118 836249 138522 477683 16 11.0025 0.0882503
92 1 21.3071 5.32003 1.86339 -4.40031 422102 -306686 -212157 256082 -3986.91 621412 14 11.0359 0.0282993
93 1 24.5919 3.64948 0.0374064 -4.41967 422582 299626 -277388 249562 -18654 -458430 13 11.1174 0.00903743
94 1 26.4798 5.3246 56.514 -4.41561 -430904 -92868.4 124790 362014 326237 -320924 13 10.9267 0.00963776
95 1 26.3257 3.56469 1.79826 -4.37592 -388490 -880753 -56246.4 148724 163647 150620 13 10.8671 0.0157807
96 1 24.802 5.33115 1.75456 -4.3731 -645928 -526887 64641.7 686356 200877 -326251 15 10.9284 0.0371745
97 1 28.1799 3.58179 0.128792 -4.42733 -25155.8 -502175 -251653 36328.5 -281502 -447500 14 10.8223 0.00677006
98 1 30.0249 5.27697 0.018506 -4.38911 -764373 -182979 -1.61371e+06 293824 191551 -135028 14 10.5941 0.0291535
99 1 29.9451 3.54943 1.81985 -4.42876 1823.43 773079 128465 -291259 29030.5 351672 14 11.1821 0.0350715
100 1 28.2357 5.4003 1.72477 -4.42169 62565.6 -425989 133414 257586 14357.1 -145902 16 11.0476 0.125223
101 1 31.8171 3.55064 56.4852 -4.41929 498830 -570272 -189063 -76611.2 34427.5 718020 14 10.9664 0.0120396
102 1 33.5554 5.29989 0.00154257 -4.4112 238433 -1.01766e+06 14317.4 -81959.4 -181831 342215 13 10.9123 0.0847192
103 1 33.7123 3.62159 1.72824 -4.34898 -364333 -87519.2 -891555 -237864 822925 292517 14 10.9778 0.0748781
104 1 31.6813 5.25285 1.81776 -4.39213 15142.4 -488028 132081 247958 -561012 503836 16 11.0162 0.0193211
105 1 35.2076 3.4949 56.4815 -4.38409 -185062 23314.1 -745687 -23383.4 791229 215860 15 10.9323 0.0233082
106 1 37.0577 5.2831 56.4589 -4.42687 817214 136349 315323 501752 117012 -202826 14 11.2555 0.0394533
107 1 37.0651 3.5359 1.71655 -4.42794 194275 -54707.2 1.07178e+06 519678 122640 550942 15 11.2668 0.0461029
108 1 35.4193 5.25123 1.80537 -4.39682 -335741 25601.7 621974 -294666 11528.6 314305 15 11.139 0.0187666
109 1 38.8509 3.54185 0.00342952 -4.41192 -156561 248695 7130.89 -18593.4 -422393 -202564 13 11.0396 0.00539989
110 1 40.6562 5.25496 0.0474985 -4.41948 671001 -178231 145079 96931 -18308.9 -282562 14 11.1361 0.0255056
111 1 40.7456 3.55138 1.74188 -4.41422 142819 -88267.1 -381394 -62636.3 -389358 24547.5 14 11.0292 0.114621
112 1 38.883 5.37274 1.78463 -4.39332 -390816 -30695.3 -322807 -595306 109767 415847 14 10.9561 0.0245837
113 1 42.4228 3.44803 56.472 -4.43368 -298650 298711 158894 305080 -1565.42 -326392 15 11.0414 0.059478
114 1 44.2254 5.26515 56.5047 -4.37984 -1.0032e+06 -425410 -1.26034e+06 525182 -518450 104780 13 10.6105 0.0387702
115 1 44.1127 3.51944 1.78199 -4.41105 -1.24136e+06 -575350 -192937 -367779 55270.2 252239 14 10.6546 0.0438667
116 1 42.4951 5.30567 1.77603 -4.4545 -40076 65301.5 398064 65598.2 -157973 298392 15 11.0305 0.0350502
117 1 45.8661 3.50859 0.0663097 -4.37359 147634 -1.05218e+06 -700872 99720.4 275538 301256 14 10.862 0.0458627
118 1 47.6014 5.27857 56.4558 -4.41177 443471 -14288.9 -433801 -53246.2 399656 381873 15 11.0249 0.00130017
119 1 47.7571 3.52661 1.70721 -4.44769 369944 163362 128381 -49879.3 6416.98 -41195 15 11.1367 0.133536
120 1 45.8098 5.2076 1.67992 -4.35208 -662146 -849286 -944396 18435.1 -667290 -290924 15 10.7221 0.0282093
121 1 49.428 3.44605 56.3857 -4.36951 -290529 -422581 -887538 -209178 959228 519714 14 10.8381 0.0250431
122 1 51.2491 5.31695 56.3803 -4.39476 -857978 -168579 -365382 573000 127231 -309745 14 10.7938 0.00749486
123 1 51.229 3.5751 1.67234 -4.44098 -27675 -359806 664884 173634 378949 -286759 15 11.0095 0.0158168
124 1 49.5747 5.294 1.69451 -4.41182 296588 17902.4 223931 545030 201544 374459 15 11.1719 0.0429618
125 1 52.951 3.53347 56.3902 -4.39653 -254574 -1.11987e+06 -844670 202445 -418096 -307972 13 10.638 0.0291391
126 1 54.7778 5.24609 0.0283033 -4.40794 -759995 86251.3 -210581 135150 -128222 -15224.9 14 10.8792 0.0262203
127 1 54.624 3.39873 1.67243 -4.37032 -588399 -778355 -326287 -440745 125171 -147019 14 10.8073 0.0259129
128 1 52.9763 5.27268 1.7016 -4.45461 -117293 195151 721432 -329490 139408 45581.3 17 11.0833 0.0181878
129 1 56.3843 7.10288 0.022103 -4.40679 -85833.4 -118269 -62755.6 165880 179859 -556717 14 10.9874 0.00900896
130 1 1.81628 8.75187 56.4824 -4.42977 382567 125173 69322.4 13627.1 -53333.8 -59451.1 14 11.0884 0.014132
131 1 1.83406 6.94479 1.80913 -4.41857 362339 15372 -369061 309742 515305 -34684.7 15 11.0607 0.0883421
132 1 0.0936386 8.73251 1.7609 -4.43254 490895 295091 -162691 -49687.6 71792.6 -666144 14 11.0866 0.0107991
133 1 3.57205 7.00054 0.0969774 -4.39716 -508844 56188.5 38786.4 126096 -378248 -47751.4 15 10.9896 0.0389127
134 1 5.2602 8.86179 56.484 -4.44522 514574 414814 343058 -134940 191517 520976 14 11.2073 0.00977521
135 1 5.27079 7.10883 1.71457 -4.39753 -647284 225334 -1.1472e+06 -215037 -101961 81834.8 14 10.7583 0.0440969
136 1 3.50173 8.93194 1.75571 -4.42562 -108270 152890 165581 358405 28322.1 -198795 14 11.0331 0.0143466
137 1 7.0414 7.06476 0.0485979 -4.4192 -350800 -393177 295528 -410753 158039 460425 16 10.9445 0.0354698
138 1 8.77331 8.78685 56.4761 -4.43759 361054 -51421.1 -27889.8 158623 -6712.49 34268.4 14 11.0446 0.0390406
139 1 8.94377 7.05893 1.84553 -4.42594 -150881 -374675 -20477.8 -100515 305243 -524342 15 10.8961 0.0136301
140 1 7.05978 8.83746 1.84391 -4.43412 671071 -4560.97 179586 -415008 140639 581146 14 11.1628 0.0487872
141 1 10.5659 7.02737 56.4814 -4.43297 -340122 1847.54 -344317 -288095 -127244 286970 14 10.9121 0.132934
142 1 12.3161 8.87475 56.4511 -4.43564 519171 416934 -37111.9 197658 -127764 -274900 12 11.1843 0.0937004
143 1 12.2672 7.01808 1.76453 -4.43191 -75383.8 -385378 -478675 358362 -206961 -326640 14 10.8329 0.0550773
144 1 10.5996 8.84475 1.74718 -4.40344 -407900 -581937 211961 -189681 258109 -846127 14 10.9171 0.0454343
145 1 13.9785 7.02584 56.4704 -4.43395 -53174.6 -34700.9 254708 -153468 -5156.24 -208599 14 11.0189 0.0261147
146 1 15.8936 8.76913 0.0316033 -4.37008 -471534 -1.28789e+06 -568066 1.06479e+06 256567 -390716 14 10.6746 0.0177586
147 1 15.7568 7.07857 1.81111 -4.41106 306271 -570077 -1.10143e+06 -181094 278790 495198 16 10.7939 0.0430735
148 1 14.0456 8.85625 1.71817 -4.41431 -418810 -636299 67182.6 -192801 347219 -95146.7 14 10.8937 0.0988235
149 1 17.5953 7.16678 0.0556358 -4.37856 288200 -405035 29606 302412 -279046 276241 14 11.1108 0.021567
150 1 19.5014 8.83562 0.0031801 -4.42088 -149101 322507 463586 111245 -55067.8 273908 14 11.1738 0.0900134
151 1 19.5055 7.052 1.73261 -4.41992 340773 855369 888265 -275069 226527 113981 13 11.4488 0.0252431
152 1 17.6102 8.77183 1.86963 -4.41679 727862 -106834 326318 386386 -15944.3 97980.9 15 11.214 0.00277956
153 1 21.2838 7.09254 0.10055 -4.39712 -446662 -443005 493460 356146 528745 213935 13 10.9631 0.0263514
154 1 22.9911 8.81764 0.0403514 -4.43563 -160236 513427 653059 -235409 -463414 107345 15 11.2115 0.0710695
155 1 23.103 7.1136 1.85879 -4.41154 134648 -376154 -473985 -150179 -477542 3751.4 14 10.9196 0.08571
156 1 21.227 8.86246 1.87052 -4.41635 381407 -216518 -215716 182068 -413026 235500 13 10.9972 0.0279387
157 1 24.8667 7.14452 0.0108014 -4.4535 752210 595654 515744 472046 -77405.9 -143801 14 11.3529 0.0561268
158 1 26.7356 8.8048 0.23427 -4.3288 -85501.4 -756070 522810 117976 167902 -28125 15 11.2556 0.00951485
159 1 26.4656 7.0671 1.86099 -4.38577 -881888 -605086 -1.03484e+06 57253 -553312 512458 14 10.6958 0.179321
160 1 24.7871 8.93331 1.71338 -4.39227 -254437 -500218 -860302 89352.4 -204264 700031 13 10.7326 0.0148475
161 1 28.2526 7.0305 56.454 -4.37898 49492.6 -843826 220125 574027 382543 -145819 14 11.009 0.0207906
162 1 30.0066 8.84226 0.204188 -4.39958 -229466 521245 -275138 -140587 -113127 -71512.5 14 11.1382 0.0598553
163 1 30.0553 6.97331 1.77116 -4.4103 -96392.1 -864101 254229 421141 -377841 -29678.6 15 10.9105 0.0179969
164 1 28.4089 8.81612 1.92309 -4.33554 -1.47769e+06 680548 -1.42001e+06 -103100 -424939 374595 16 10.8172 0.057532
165 1 31.8718 7.09145 56.5091 -4.41248 -642147 181832 -161168 -222466 -573272 -120215 15 10.9253 0.0478975
166 1 33.6133 8.71413 56.4657 -4.42131 -198055 61697.2 717383 -377501 -23457.4 231166 15 11.1339 0.0112546
167 1 33.4998 7.0228 1.73385 -4.42562 488236 488076 -686921 -32262.6 -110863 5903.61 14 11.0971 0.0712684
168 1 31.796 8.90134 1.72155 -4.36676 -1.24865e+06 -608047 -1.16955e+06 231294 -219485 610343 15 10.6207 0.128827
169 1 35.2792 6.97973 -0.00322177 -4.42608 -184448 -111081 1.02397e+06 148447 147306 52763.9 15 11.1552 0.0446643
170 1 37.0636 8.74515 56.4359 -4.38828 621762 530872 -360586 -10119.6 -169044 -166370 15 11.3068 0.0522907
171 1 37.1162 7.13606 1.76204 -4.42122 575247 -126193 225917 89461.4 -214727 227929 14 11.121 0.00528097
172 1 35.3144 8.83239 1.74574 -4.42421 170486 656482 962706 -64645.1 -248523 163387 12 11.332 0.0103003
173 1 38.9252 7.02462 -0.0037216 -4.4303 238701 230927 -149155 125273 -228042 153540 13 11.0794 0.0793704
174 1 40.5573 8.95628 0.0154232 -4.33605 -1.03848e+06 218597 -546075 -461023 -24504.9 16363.1 12 10.9445 0.0232995
175 1 40.5985 6.96835 1.78306 -4.35721 -1.10327e+06 -986423 -60042.8 -761911 -422091 -25495.6 14 10.7533 0.0346858
176 1 38.9715 8.76238 1.74162 -4.39692 307384 242034 -131681 -252802 571622 406693 15 11.2046 0.010452
177 1 42.4586 7.03794 56.4759 -4.42524 544442 343570 17197 -407349 42436.2 -1864.08 14 11.2208 0.0391526
178 1 44.1306 8.81926 56.4963 -4.39937 -365015 -242298 1.07991e+06 -37756.5 -76183.3 -78887.4 13 11.1544 0.0245361
179 1 44.2587 7.03874 1.6924 -4.39172 -140925 -84462.8 -106879 29533 345568 -89973.3 15 11.061 0.0544344
180 1 42.2272 8.7438 1.84414 -4.40979 753011 404528 213792 -414091 205461 395980 14 11.3521 0.0393213
181 1 45.8798 7.09522 0.0104117 -4.39973 -870741 529178 -599589 240350 504105 330914 15 10.8754 0.0179519
182 1 47.7788 8.85119 56.4133 -4.40998 402564 204115 -203658 -318029 509308 -159514 15 11.1418 0.0427522
183 1 47.6529 6.99333 1.67931 -4.4185 442073 646628 8738.65 218630 350748 188130 15 11.2344 0.010344
184 1 45.988 8.83591 1.81594 -4.39733 68459.8 -917464 -147746 -506505 -64190.5 341326 14 10.9483 0.152921
185 1 49.5473 7.00795 0.0523237 -4.4135 305309 -416034 10554.5 216054 308177 376495 15 11.0033 0.0151684
186 1 51.1965 8.80904 56.4741 -4.4293 -310306 -770959 121289 174663 -73267.9 68550.7 14 10.7962 0.0272253
187 1 51.3494 7.12116 1.74399 -4.37622 -934668 -523355 -274800 -770771 -357532 -109770 14 10.7808 0.0233503
188 1 49.4543 8.77954 1.83724 -4.45466 643525 707285 408018 66282.5 356334 270848 15 11.2623 0.00388635
189 1 52.9639 7.12194 56.4015 -4.38088 -117292 -842607 -944678 -357080 690421 380175 15 10.7517 0.0126056
190 1 54.6972 8.79348 0.0744504 -4.39746 -496388 -1.14579e+06 -110415 341847 18576.7 -523796 13 10.7202 0.0268444
191 1 54.6833 6.99625 1.74992 -4.41431 269727 -640198 -349654 18048.1 506325 -365116 13 10.8717 0.013766
192 1 52.9688 8.74364 1.81414 -4.36122 -1.3865e+06 -1.1218e+06 -291193 -761244 325544 111616 13 10.5884 0.0156226
193 1 0.0122506 10.5156 56.4852 -4.43579 411241 998603 27033.7 110804 696679 -329332 16 11.3059 0.0253093
194 1 1.87106 12.3703 0.0357727 -4.40069 -22953.9 -14327.8 714510 -44531.3 188399 493702 15 11.2708 0.0719086
195 1 1.77971 10.5768 1.74756 -4.4374 -293815 71229 477491 618993 255617 217229 15 11.019 0.0321318
196 1 0.0380708 12.3533 1.79345 -4.38876 244647 -660647 -298306 240652 -85184.6 1.13367e+06 13 11.005 0.083105
197 1 3.45769 10.5982 56.4169 -4.41284 11222.6 -368623 466505 280900 50814.3 286718 14 11.0538 0.0343263
198 1 5.25628 12.3198 56.4346 -4.44267 -379849 832101 96858.5 55210.8 750019 -30802.2 16 11.1267 0.084699
199 1 5.2541 10.6422 1.8989 -4.35164 -604376 -659807 23076.2 147758 792437 -141898 15 10.9625 0.0270157
200 1 3.64443 12.3423 1.6968 -4.39413 -411554 -608258 -395340 194735 -132585 306792 15 10.8163 0.0325111
201 1 7.06178 10.5599 0.0396607 -4.42724 -198451 -172740 243880 -304587 -190913 -79097.1 13 10.9636 0.0183049
202 1 8.73759 12.2925 0.104181 -4.38289 -768410 -351557 -294931 113863 -149815 -89306 14 10.8519 0.0560896
203 1 8.85572 10.515 1.69525 -4.40488 -395266 -413591 -215474 -313347 -227341 308870 15 10.8481 0.0142873
204 1 6.9821 12.3728 1.75609 -4.43343 148346 -78329.4 212042 -603515 478518 110377 14 11.0368 0.0110577
205 1 10.575 10.6794 56.3955 -4.39885 -215757 170227 -567855 454108 -329795 123665 14 10.9397 0.0180776
206 1 12.4303 12.4109 0.104836 -4.41493 629884 661152 192043 -179367 127536 475772 15 11.3263 0.00670754
207 1 12.2927 10.5492 1.67005 -4.40274 -423414 -764133 42154.8 -123121 -321259 -252968 13 10.8065 0.00448757
208 1 10.5332 12.2671 1.74 -4.41612 -330693 540758 16200.6 -24098.5 -122085 -29989.9 14 11.1088 0.0875469
209 1 14.2251 10.5312 56.4733 -4.38083 -240928 -570296 -615819 -148085 113753 822577 14 10.8506 0.0399485
210 1 15.9195 12.2534 56.4912 -4.40636 26170.1 -567851 -479443 -315847 -16036 -1.13954e+06 15 10.8829 0.0421549
211 1 15.8511 10.3973 1.74431 -4.39706 -422730 -205457 54490.4 49302 -129965 -548512 14 10.9878 0.0202298
212 1 14.1 12.2266 1.83664 -4.3773 -89938.8 -167961 -782504 -253725 -792345 315065 14 10.9386 0.015573
213 1 17.6841 10.4844 0.00688904 -4.43806 -25717.9 271446 57731 245259 -240444 -600965 15 11.0372 0.0134532
214 1 19.3886 12.3873 0.0697505 -4.43484 279422 241102 618267 38724.9 442320 3947.62 13 11.2253 0.0554612
215 1 19.4556 10.5572 1.8251 -4.41691 -333594 619393 198010 546030 287561 -37829 12 11.0921 0.00778795
216 1 17.6671 12.2297 1.80932 -4.42406 258355 287579 197351 734413 388058 255801 14 11.1308 0.00617727
217 1 21.2267 10.5958 0.186679 -4.42106 512960 164967 378599 -309083 514996 121392 14 11.2254 0.0236083
218 1 23.0211 12.3211 56.4966 -4.4511 419770 375961 653890 -365462 44972.1 -78427.1 14 11.2657 0.0815627
219 1 23.0508 10.6689 1.94657 -4.34846 -137085 -512628 -730581 147403 -573660 -442660 13 10.9331 0.0346879
220 1 21.1972 12.3958 1.81613 -4.43268 129270 -362194 20610.4 -52320.2 -350100 -90271.8 14 10.9488 0.0632633
221 1 24.7855 10.5461 56.5158 -4.41013 872268 -83730.8 -329389 -281274 83692.8 670740 13 11.1581 0.0481147
222 1 26.5637 12.3099 56.4445 -4.40045 -272400 -419165 -608123 386785 31103.3 407315 13 10.8125 0.0507989
223 1 26.6127 10.6779 1.71075 -4.37958 121825 -549269 -32889.1 -520720 231054 263548 15 11.0534 0.00655979
224 1 24.83 12.394 1.78269 -4.42859 270020 169324 977523 -848076 178712 -122454 14 11.2928 0.0129779
225 1 28.2914 10.6575 -0.00822582 -4.38666 -373240 -294428 -116943 271104 665078 -182829 13 10.9555 0.0397031
226 1 30.1558 12.4466 0.0438428 -4.43432 456776 364272 317443 -117637 88511.5 344393 14 11.193 0.00323756
227 1 30.087 10.6246 1.87825 -4.38182 -512634 -1.27595e+06 -699977 375027 -14002.1 -341061 14 10.6661 0.0704573
228 1 28.3396 12.3094 1.75601 -4.41886 697.939 91767.6 379527 -221425 16106.9 -205521 13 11.1058 0.0201862
229 1 31.7991 10.5824 0.077994 -4.41902 224960 -166204 -590698 -219385 -240168 535421 15 10.931 0.0399298
230 1 33.5446 12.3644 0.064728 -4.41003 -756848 -10814.1 -679929 38596.7 199860 -366239 13 10.7647 0.0478754
231 1 33.5363 10.5835 1.78262 -4.43856 -5367.68 171666 539156 19279.3 -182347 512177 14 11.1152 0.0260561
232 1 31.8693 12.3696 1.80977 -4.42193 -235583 240761 -96341.8 -300224 74560.8 289273 14 10.992 0.0151869
233 1 35.2211 10.6355 56.4032 -4.38473 156536 -169388 -233774 221734 -223657 -229534 14 11.0635 0.0126531
234 1 37.0654 12.397 0.0726274 -4.43011 200050 774537 476370 205216 477054 -177795 13 11.2836 0.0416093
235 1 36.9678 10.593 1.8433 -4.40406 1.24519e+06 497900 1.26346e+06 -101857 185045 224542 15 11.7113 0.00826187
236 1 35.3334 12.3822 1.71202 -4.40901 -532225 229041 -141860 302521 -148354 176464 14 10.9487 0.0377744
237 1 38.8316 10.623 0.0393303 -4.4192 788281 379247 721480 896156 -148807 -65783.3 12 11.4184 0.0361945
238 1 40.7407 12.5031 0.0581236 -4.39597 199637 280339 -301018 -251832 -90614 17577.9 15 11.1245 0.0239649
239 1 40.6107 10.6706 1.80567 -4.42196 65165.2 -364225 607630 -154448 -10795.8 -374206 14 11.0913 0.0817406
240 1 38.9037 12.409 1.79769 -4.43382 398366 3760.07 464569 465455 -394360 11681.7 14 11.2528 0.174912
241 1 42.3806 10.4777 56.4506 -4.40973 101148 51680.9 1.02305e+06 -394001 -155554 -186888 15 11.2743 0.0202047
242 1 44.1243 12.2614 56.5129 -4.43988 491929 570949 321035 285221 605059 -115191 15 11.3054 0.0816058
243 1 44.1293 10.4884 1.89562 -4.43516 454386 343454 469128 243024 325072 180544 14 11.3015 0.114342
244 1 42.4134 12.2833 1.77702 -4.41497 -246850 952454 393151 -81598.1 144324 177184 12 11.2482 0.0296979
245 1 45.818 10.5371 0.0445239 -4.41752 -374667 -218358 294092 -374195 -425337 25229.3 15 10.9633 0.0156208
246 1 47.6034 12.206 56.4275 -4.39489 190373 -537436 -396050 -98114.3 37839.1 -265109 15 10.9373 0.0230015
247 1 47.6216 10.5153 1.64431 -4.35223 -871015 -886720 270241 -123396 245055 182915 13 10.894 0.0118509
248 1 45.9867 12.2122 1.91647 -4.37747 -177087 -286335 -237819 184550 81142.1 369491 15 11.0299 0.0127183
249 1 49.5208 10.5455 0.0823358 -4.40061 -737391 -412411 -94583.1 -229967 -15675.5 256596 13 10.8019 0.0178122
250 1 51.1423 12.3643 0.0308415 -4.40697 212474 -341704 -374306 -456503 -342199 -70080.5 13 10.9539 0.0319515
251 1 51.2687 10.5405 1.72894 -4.44231 151336 866416 381123 -113771 -262777 -26223.8 16 11.29 0.0704031
252 1 49.3487 12.3251 1.81161 -4.43686 739187 -135253 343422 -69287.9 319000 485937 15 11.2231 0.0776383
253 1 52.975 10.5188 56.4687 -4.44264 -142886 346770 56832.3 -56333.7 -123358 147092 15 11.0519 0.0910231
254 1 54.7138 12.3377 56.4549 -4.41537 240775 259853 -274921 -160872 161642 -24182.4 14 11.0916 0.0658128
255 1 54.7091 10.5176 1.72007 -4.41058 172085 421118 50727.9 171399 -678903 -380871 15 11.1817 0.0360194
256 1 53.0323 12.277 1.83016 -4.43016 -77303.9 591606 880511 -191774 164375 -175722 13 11.2478 0.00966475
257 1 56.4951 14.1163 0.156904 -4.38241 -230480 -40206.3 -446367 -281658 559433 389931 14 10.9522 0.00552203
258 1 1.80224 15.7747 0.0627809 -4.40235 -728374 231307 -147080 289156 -775475 79980.4 14 10.9153 0.0100222
259 1 1.75153 14.1112 1.95073 -4.33999 -417002 -1.40032e+06 -1.15793e+06 -567814 56716.1 524084 14 10.6424 0.0495516
260 1 0.00908323 15.8898 1.8196 -4.44082 874379 -313429 176393 302224 55595.9 31863.8 14 11.1711 0.100622
261 1 3.48688 14.1042 0.0198203 -4.40193 -463793 -840080 664628 -150408 -350018 54180.8 12 10.927 0.0229222
262 1 5.19725 15.8767 0.0120761 -4.44323 621448 -18.5707 199554 240744 127128 -51480.9 15 11.0951 0.00347837
263 1 5.24326 14.1341 1.77644 -4.41361 -210182 -90259.5 34561.1 -223834 379889 -395917 16 10.9812 0.0370284
264 1 3.43091 15.8338 1.78848 -4.39853 -570349 -326346 -822931 -89291.8 -231307 -134294 14 10.707 0.0200111
265 1 7.03357 14.1223 56.5234 -4.4265 492676 -372551 -285377 -185249 -165982 -54303.6 13 10.9896 0.0888843
266 1 8.80975 15.8412 56.4844 -4.42354 -197000 369752 329866 387234 -308126 -171579 12 11.0905 0.0404414
267 1 8.72706 14.0482 1.81025 -4.41036 590632 -243582 216146 -98105.5 61269.5 -343198 14 11.1629 0.0392978
268 1 7.08379 15.8902 1.74605 -4.42426 44983.5 -19639.2 -127329 178671 308885 -322028 14 11.0036 0.0758023
269 1 10.5312 14.102 56.4967 -4.4393 945931 554668 844573 368102 38299.9 -349793 15 11.4694 0.0797607
270 1 12.4095 15.8949 56.4913 -4.42886 286152 685015 504375 180620 -331878 -498807 14 11.2803 0.00566274
271 1 12.3302 14.0818 1.90435 -4.37713 151609 627651 65379.2 -17239.9 -20412.4 -178033 13 11.3041 0.0168164
272 1 10.5546 15.8745 1.74468 -4.42804 831901 756800 951466 549584 188283 -172768 14 11.5061 0.015374
273 1 14.2236 14.1344 56.4642 -4.38968 46252.6 -14270.1 -202595 -210755 -595935 -494983 14 11.0612 0.00686428
274 1 15.9578 15.8732 0.109241 -4.39674 -187200 -66218.2 2506.25 12106.4 383851 -461523 14 11.0618 0.059362
275 1 15.9344 13.9483 1.65974 -4.37578 -76469.4 100881 -581040 294184 81373.2 -450.267 13 10.9976 0.0258292
276 1 14.1356 15.7795 1.69201 -4.39913 -396104 193040 -528279 -343811 -217663 -784759 14 10.931 0.0422409
277 1 17.6477 14.0794 0.0524667 -4.41863 -513614 139896 58212.2 359112 997397 253271 14 10.9591 0.0167663
278 1 19.4052 15.8874 56.4061 -4.4239 -107384 -24972.6 342705 -121059 111588 -313826 14 11.0919 0.0711053