ITEM: TIMESTEP
2000
ITEM: NUMBER OF ATOMS
16380
ITEM: BOX BOUNDS pp pp pp
0.0000000000000000e+00 5.6512000000000000e+01
0.0000000000000000e+00 5.6512000000000000e+01
0.0000000000000000e+00 5.6512000000000000e+01
ITEM: ATOMS id type x y z c_peatom c_satom[1] c_satom[2] c_satom[3] c_satom[4] c_satom[5] c_satom[6] c_coord c_voro[1] c_keatom
1 1 56.4209 56.4852 56.4767 -4.41535 596653 -209738 484378 -7842.75 -305232 -297311 15 11.1931 0.000792627
2 1 1.64817 1.77469 56.4649 -4.40289 -441795 182957 -89566.1 221686 568220 -123541 14 11.0391 0.0877698
3 1 1.71386 56.4695 1.7936 -4.43204 -60882.4 99134.5 482443 93723.5 726707 -282214 15 11.107 0.0310545
4 1 0.0335038 1.66895 1.86834 -4.41418 -116564 94878.8 332181 131752 -8251.69 203943 15 11.1051 0.0377731
5 1 3.54021 56.4044 0.0614361 -4.36638 -667627 110371 -728996 -323722 -652008 64375.5 15 10.8949 0.0328487
6 1 5.21248 1.95363 56.4745 -4.41819 -160111 205036 122574 -141677 196940 465137 14 11.0788 0.0326937
7 1 5.21019 0.142943 1.6433 -4.3581 -1.12463e+06 438145 -576055 8408.97 -350488 -305103 13 10.9227 0.008864
8 1 3.43029 1.72868 1.68305 -4.41002 -582065 -518192 218403 1.07099e+06 282592 -244215 14 10.9263 0.0834261
9 1 7.00683 0.0140828 0.0620881 -4.42361 -398249 871515 -236867 -266406 216381 315650 15 11.0315 0.00298747
10 1 8.75125 1.79519 0.0667682 -4.42683 552080 -9956.63 290004 254999 72852.3 88053.6 14 11.1474 0.0151886
11 1 8.79481 0.0119835 1.68964 -4.40286 230520 66261.3 -211413 -414405 234633 508608 13 11.1085 0.0409443
12 1 6.98402 1.83864 1.83489 -4.33292 -1.08053e+06 -1.24336e+06 -1.14289e+06 -652378 1.09219e+06 692079 13 10.5679 0.0466106
13 1 10.5976 0.136465 0.0345848 -4.37766 264978 693781 -385691 175562 -16143.8 928706 13 11.2892 0.0831977
14 1 12.4843 1.74549 56.5001 -4.41576 39518 -53884 386759 134335 -419692 -444549 13 11.1132 0.0635437
15 1 12.3216 56.4488 1.77883 -4.41669 328372 808193 -191075 42420.6 -214364 235996 14 11.2426 0.0733507
16 1 10.6365 1.92009 1.82707 -4.4042 626509 660472 365078 -171555 487514 311313 15 11.395 0.0321002
17 1 14.1693 0.0222549 0.00467671 -4.41223 -265600 -70847.8 1.00843e+06 204213 -91630.8 17845.5 14 11.1535 0.0383694
18 1 15.8893 1.69137 56.4688 -4.4301 165536 152601 67560.9 -437163 172729 136504 15 11.0649 0.00666465
19 1 15.9885 56.4598 1.80514 -4.39855 -34729.5 -572928 570179 88969.4 -6981.75 -365562 15 11.0357 0.0097085
20 1 14.2167 1.78993 1.78799 -4.42959 602996 213553 62638.9 4281.68 29549.2 -28896.5 14 11.1634 0.0122496
21 1 17.6519 56.4874 56.399 -4.38193 -284423 -1.076e+06 93258.7 338083 -57261.8 -322388 15 10.8658 0.0303539
22 1 19.3295 1.74954 56.4077 -4.38893 -39554.3 272393 -187446 -192444 -222771 197618 16 11.1598 0.0697565
23 1 19.5128 0.156212 1.69626 -4.3825 384996 -616876 -400999 -128993 300430 -1.00717e+06 14 10.9878 0.0132589
24 1 17.5578 1.71439 1.84031 -4.35665 -1.09504e+06 -1.04454e+06 774772 238840 283378 268837 15 10.907 0.01215
25 1 21.2563 56.4652 56.5023 -4.40617 41107.5 345890 -237102 -704274 248257 -152494 14 11.067 0.000776892
26 1 23.0311 1.75966 0.0247239 -4.42818 644571 629951 181648 51430.8 481544 114134 13 11.2697 0.0261717
27 1 22.9536 56.5058 1.79391 -4.44523 292396 266337 409040 264965 102353 307266 14 11.1525 0.0563685
28 1 21.2583 1.79177 1.79802 -4.39942 612758 -153177 368417 -349472 394275 425187 14 11.2468 0.0418853
29 1 24.7334 56.4353 56.4781 -4.39142 -76939.3 -201107 -473717 -25881.1 -644424 146529 14 10.937 0.0147882
30 1 26.5289 1.85088 0.0186387 -4.43741 581984 112310 20292.1 168291 -194204 -201420 13 11.1118 0.0224507
31 1 26.4459 0.0315465 1.67921 -4.41454 -328628 -353478 204854 -534839 -268936 -205111 16 10.9287 0.0143605
32 1 24.7467 1.79105 1.83051 -4.43001 -206917 189072 255216 85031.3 30369.8 -170770 16 11.0667 0.0495375
33 1 28.2572 0.0141428 0.00922066 -4.44653 -190270 -133869 6080.41 -245982 -16694.8 86077.1 14 10.8837 0.0150165
34 1 30.0687 1.76805 0.0273697 -4.40984 360434 18620 -442500 90437 -929523 -71106.4 13 11.018 0.00996711
35 1 30.1027 56.4607 1.70353 -4.3931 -449081 -310572 -494129 -144927 -88708.9 -506113 13 10.8171 0.0144392
36 1 28.1798 1.72868 1.84695 -4.36775 -303776 -347895 -567352 -283501 -444984 223797 14 10.929 0.0503476
37 1 31.8015 56.467 56.4397 -4.38659 -328672 426224 -439579 331955 1.17984e+06 -171874 14 11.0334 0.0215059
38 1 33.6956 1.87475 56.5074 -4.40556 -275662 -47602.1 -325912 258554 -107445 -127364 14 10.9232 0.0449385
39 1 33.6079 0.0501081 1.72779 -4.44488 661293 282736 1.15397e+06 229498 -15858.7 -127739 15 11.3697 0.0109077
40 1 31.7867 1.77382 1.65921 -4.42968 206225 424605 350292 -47344.4 -374081 147266 14 11.1839 0.00207018
41 1 35.4055 0.0692631 56.4897 -4.42611 84241.3 360867 106311 405530 887295 40592.3 15 11.1183 0.0410967
42 1 37.1685 1.85485 0.0249756 -4.42661 325422 -477954 335913 496634 -251469 75083.1 14 11.0323 0.0531559
43 1 37.1624 0.126657 1.82347 -4.42423 -256605 286611 421206 -232643 150465 61931.1 14 11.0943 0.0484961
44 1 35.3725 1.77246 1.84039 -4.44383 19762.5 366115 608790 118725 -183669 -261168 14 11.1246 0.0170472
45 1 38.8308 0.0507843 0.0528271 -4.40777 -559966 -91188.8 -76104.9 133684 -353433 248195 13 10.9723 0.141925
46 1 40.6619 1.69263 56.4813 -4.41803 -67061.5 -125701 -68522.9 -260644 210935 12198.5 15 10.9667 0.00703286
47 1 40.5872 56.4933 1.69122 -4.42316 252168 18560 108288 145841 -302090 -87389.7 14 11.0761 0.00890278
48 1 38.9016 1.77328 1.80288 -4.39783 -27151.2 -546368 336437 -473965 -376052 -940996 13 11.0109 0.01439
49 1 42.3729 56.4792 56.4706 -4.40605 -718598 -548757 -313766 -318855 114253 50452.5 14 10.7312 0.00865945
50 1 44.0251 1.70246 56.4795 -4.39516 -141266 504167 -428939 -451670 -226728 -196658 13 11.0962 0.0623242
51 1 44.1623 56.4687 1.83183 -4.41799 -284310 173325 270805 73738.4 738221 90315.5 14 11.0599 0.0488522
52 1 42.4403 1.77425 1.73626 -4.40401 -343854 -35870.5 -381478 -500463 779863 172802 14 10.8898 0.0131735
53 1 45.8602 56.4226 56.5126 -4.40045 -17683.3 18462.5 -259046 -456274 -22595 -137984 14 11.0448 0.0225042
54 1 47.6705 1.77963 56.4947 -4.4161 94794.2 -172013 31178.6 357651 60939.4 -48494.4 14 11.0117 0.00181065
55 1 47.6363 0.0229617 1.79283 -4.4323 317473 -201199 -61358.9 -112376 141091 -265722 14 10.9636 0.00224143
56 1 45.8072 1.71535 1.74502 -4.44414 635691 180182 252194 -154692 57586.3 143520 15 11.1749 0.0487503
57 1 49.4041 0.0164701 56.5053 -4.44248 418499 -91386.8 309890 -74721.4 -80973.1 -265841 13 11.0811 0.0336298
58 1 51.2206 1.71997 0.00988621 -4.42079 -205191 831197 354695 259757 541572 640094 13 11.2563 0.079624
59 1 51.2337 56.4579 1.76921 -4.40899 401888 -289317 314227 300523 242713 -128554 14 11.1149 0.020566
60 1 49.4543 1.76884 1.65461 -4.40343 -98458.4 74936.5 -775477 164655 -11930.2 249655 15 10.8976 0.0323507
61 1 52.965 56.4778 56.3774 -4.40976 460290 16584.1 439778 -140583 16978.6 694856 15 11.2605 0.0331778
62 1 54.7774 1.73297 56.5104 -4.42287 192110 334562 785876 132349 -33767 -180728 13 11.2636 0.00601654
63 1 54.6663 0.0134325 1.86844 -4.44381 491076 305362 1.07795e+06 -89186.5 139341 225248 14 11.3304 0.00122655
64 1 52.8979 1.80214 1.86304 -4.43324 656072 820687 958910 115630 -356408 450525 14 11.4679 0.00938041
65 1 56.5047 3.46651 56.4615 -4.41803 -27923.6 62186.8 1.0374e+06 393712 333157 -441096 16 11.236 0.00848105
66 1 1.72009 5.28778 0.0237874 -4.42843 -344822 -2469.49 69742.4 614981 546884 -480701 14 10.9316 0.00308119
67 1 1.76924 3.42793 1.79514 -4.416 67748.9 -310173 -17165 166168 194834 206947 14 11.0037 0.0436348
68 1 0.0869646 5.40041 1.7569 -4.35839 -644599 201484 -1.11419e+06 -133906 -592718 186413 15 10.9029 0.0545289
69 1 3.43317 3.58528 0.0238587 -4.42331 -635499 -99140.9 10707.2 624560 232978 121226 14 10.8563 0.0236574
70 1 5.31536 5.20922 56.4876 -4.39865 -321337 -457391 -91194.8 802469 36773.5 142416 15 10.9397 0.0421982
71 1 5.29087 3.65577 1.801 -4.39666 529117 -553956 -1.43313e+06 421013 415471 317142 15 10.8221 0.0219331
72 1 3.40285 5.34149 1.85218 -4.4164 -226910 318848 24907.5 -58610.9 125581 -268499 15 11.09 0.0793184
73 1 6.97529 3.56304 0.0926059 -4.35704 -969248 -1.0451e+06 -123636 296062 58258.6 317675 14 10.7276 0.0105586
74 1 8.82001 5.26465 56.4934 -4.43809 316849 467299 266222 189402 439414 341562 14 11.2687 0.107702
75 1 8.6873 3.51901 1.82657 -4.38325 181945 -8112.81 -53905.7 86461.2 -7433.7 -15954.1 13 11.1731 0.059318
76 1 7.08941 5.44202 1.72708 -4.39633 -50822.7 -609788 -578262 125401 -21021 94937.3 14 10.8414 0.0653014
77 1 10.6791 3.52478 0.0610021 -4.41068 744800 422952 20519.1 -23005 -59734.6 217201 14 11.3185 0.0728984
78 1 12.3624 5.33941 56.4174 -4.34453 -1.14986e+06 -1.39362e+06 545492 -133659 -62050.2 -639439 13 10.802 0.0387636
79 1 12.4832 3.53908 1.71252 -4.37237 -737487 -7206.04 437449 -776230 124096 -373630 13 11.1071 0.0752719
80 1 10.7176 5.38066 1.80069 -4.40243 594313 -162163 -49035.7 -33431.5 160316 -209158 15 11.2351 0.119121
81 1 14.1291 3.66661 0.0125007 -4.3765 -166621 340644 -441116 -287443 733786 -404087 14 11.0953 0.0251096
82 1 15.8773 5.35186 56.4119 -4.39948 -531546 -130738 51824.4 -641265 79764 -504274 12 10.947 0.0410769
83 1 16.0257 3.41585 1.7693 -4.38937 -661201 -326601 837636 492177 403643 -354923 15 11.1464 0.11087
84 1 14.1833 5.18541 1.80236 -4.36945 -276404 -484429 -162495 -1.30321e+06 5834.52 -919510 16 10.9682 0.0103631
85 1 17.6457 3.53034 0.0274828 -4.40373 -712436 108342 -478125 -117663 -103816 -399591 14 10.8446 0.0461446
86 1 19.3971 5.19671 0.125314 -4.38904 -345798 134519 340743 306155 200448 90908.7 15 11.2051 0.0930968
87 1 19.2491 3.48914 1.82288 -4.38907 411294 426659 -622219 -137865 437992 208963 15 11.1906 0.0321169
88 1 17.5983 5.34918 1.66092 -4.37829 -234547 -304272 -708120 274722 457948 -8958.14 15 10.8954 0.0737383
89 1 21.1408 3.51652 0.160276 -4.3925 794608 -294603 515069 319676 28017.6 -272469 14 11.3539 0.0918773
90 1 22.8925 5.32783 0.018125 -4.4198 -52926.3 39279.4 -496287 -9038.55 208397 -242322 16 10.8943 0.00924506
91 1 23.0558 3.62647 1.77191 -4.40114 -473890 -114324 -751960 165886 -497703 -259294 15 10.841 0.0774313
92 1 21.2376 5.31222 1.71349 -4.37851 -571622 94899.3 -844854 28196.3 87120.2 -664643 14 10.8399 0.0138818
93 1 24.7859 3.62941 56.4981 -4.44065 -191471 367448 -120335 43376 -181815 -315665 16 10.997 0.0765651
94 1 26.5204 5.3936 56.4488 -4.42396 -555930 136224 -376235 -230168 -285869 -321988 13 10.8381 0.0357593
95 1 26.4772 3.52319 1.75122 -4.41526 -333900 187704 -186732 -5733.38 104073 -363822 15 10.9884 0.0523393
96 1 24.7771 5.39216 1.71902 -4.41398 19389.3 -1.13383e+06 -260007 -334717 117546 64188.6 15 10.7457 0.00582555
97 1 28.277 3.59468 56.3957 -4.40477 17792.5 64666.8 -170138 -187693 -281598 -513784 15 11.0332 0.0182841
98 1 30.0719 5.33119 56.4679 -4.42069 214157 -79200.4 -195537 -224465 570530 -445954 13 10.9877 0.0299704
99 1 29.9481 3.49655 1.67937 -4.43679 635652 451894 340976 167754 68688.8 -61644.3 15 11.2643 0.00819027
100 1 28.2237 5.32274 1.69383 -4.4416 206957 169218 493102 -30538.6 -250589 175285 14 11.1214 0.0216249
101 1 31.9178 3.55577 0.0199573 -4.38253 -179194 -1.31956e+06 -1.02129e+06 -172230 -645430 -152131 14 10.6129 0.0471064
102 1 33.5752 5.2994 0.0702092 -4.36862 -376755 -915075 -1.15936e+06 -195715 -563341 -420530 14 10.7424 0.124005
103 1 33.6133 3.54588 1.75539 -4.40609 -503519 -477790 -419696 273383 -406653 -118506 14 10.7695 0.0176184
104 1 31.8662 5.20275 1.76644 -4.40848 -330812 -381050 -399014 348997 96393.5 -36469.5 16 10.8833 0.0919114
105 1 35.449 3.54552 56.4757 -4.41747 -159708 -283192 -357114 -119181 -380507 -410512 15 10.8891 0.0828179
106 1 37.1532 5.37736 56.4577 -4.42475 -117551 122726 706024 402561 267680 -41995.7 15 11.1432 0.0127377
107 1 37.1172 3.55431 1.79356 -4.43918 323149 186430 469033 25153.6 -508524 -583676 14 11.196 0.0872015
108 1 35.3482 5.25593 1.72829 -4.42453 -301686 -30180.4 565972 254527 -113308 -176766 15 11.0426 0.0143652
109 1 38.9265 3.63195 56.4599 -4.44705 566318 1.02241e+06 908923 -296480 -325010 140431 14 11.4401 0.00401407
110 1 40.6371 5.39031 0.00883227 -4.38561 -341968 -844462 -567294 -45843.5 -432788 57750.3 15 10.8051 0.105789
111 1 40.5877 3.545 1.77142 -4.42699 -503664 101481 -116946 -20468.9 394472 -28535.7 15 10.9354 0.104978
112 1 38.9089 5.24869 1.92353 -4.39456 -100959 188929 431112 49123.1 -541378 121957 15 11.2384 0.0585508
113 1 42.2603 3.56425 56.5144 -4.43912 194675 252253 138081 59932.9 -6965.54 -147331 14 11.0945 0.0500019
114 1 44.1079 5.32625 0.126275 -4.37772 9054.18 -378210 -267760 -470150 -449131 -285939 14 11.0116 0.0224849
115 1 44.0239 3.53275 1.76972 -4.38786 -405110 35821.8 -247173 -753065 517120 253628 14 10.9619 0.024335
116 1 42.2364 5.39438 1.77587 -4.38639 -436695 -575595 -544731 609117 -127914 45170.2 14 10.7933 0.0134472
117 1 45.8888 3.4543 0.0109986 -4.41906 544127 -96180.2 -267214 242852 -263977 513215 14 11.0469 0.00318762
118 1 47.7311 5.21512 56.3969 -4.4347 -107696 -390597 -169670 -52998.2 -274113 435378 16 10.8587 0.02822
119 1 47.7174 3.53127 1.69217 -4.42041 -335824 72557.6 -521545 129257 5177.62 -39886.1 14 10.8432 0.0127411
120 1 45.8785 5.22781 1.66609 -4.39897 -498154 -111379 -379292 -16592.2 -661433 456501 13 10.8757 0.0510718
121 1 49.4604 3.47022 56.5013 -4.41707 -257140 -377455 -286419 87919.1 493357 57210.7 15 10.831 0.0137798
122 1 51.2297 5.24415 56.3819 -4.42906 214940 385918 43536.1 434269 -197377 342384 14 11.116 0.0111006
123 1 51.2178 3.63501 1.78683 -4.4143 -250161 -212479 741144 205541 -133633 45948.4 13 11.1127 0.0749515
124 1 49.4575 5.24523 1.74066 -4.43662 -98257.5 -321391 356480 -82765.1 -43278.4 446351 16 11.0749 0.200238
125 1 53.0457 3.57642 0.037103 -4.41602 515018 -8255.99 191153 240578 -64030.1 -462476 13 11.1796 0.0665566
126 1 54.8182 5.28998 0.0323269 -4.43974 312521 21115.4 419519 -124419 -127888 50758 13 11.0956 0.0169245
127 1 54.7671 3.54349 1.76694 -4.4174 706324 708328 -554050 -4513.69 -669563 261980 13 11.203 0.0175603
128 1 52.9078 5.32691 1.67559 -4.41021 30190.1 -377648 -20626.4 -506694 185670 -479458 15 10.9753 0.0528849
129 1 0.048185 7.06995 56.5089 -4.39815 101452 -653163 -548061 93210.1 -530240 664454 14 10.8494 0.00875308
130 1 1.85649 8.8227 0.0232159 -4.39062 -195555 -225041 -642973 -302278 -295409 541528 13 10.903 0.0662192
131 1 1.72741 7.15521 1.66734 -4.38303 -368815 -918292 -638573 -398613 -553644 507109 13 10.7723 0.0763077
132 1 56.3961 8.82737 1.69202 -4.44607 489570 -246380 388688 273402 -247864 -105659 16 11.07 0.00670276
133 1 3.58643 6.99087 56.4002 -4.38903 -206027 -507206 -170976 -501395 340376 -486614 14 10.9282 0.0013278
134 1 5.22523 8.7078 56.5241 -4.35451 -886524 -266279 -1.49734e+06 -215908 -169808 -492238 14 10.7238 0.134128
135 1 5.23939 7.04645 1.78527 -4.42412 -321863 -362672 84406.6 412224 -9451.45 807882 13 10.9164 0.0649763
136 1 3.56503 8.80798 1.77597 -4.41275 -585945 -534498 -229127 107321 -259870 547734 15 10.7754 0.0240325
137 1 7.12143 7.03943 0.0272955 -4.39336 522317 -708089 -740051 460115 414345 610612 14 10.9365 0.0982856
138 1 8.98235 8.80733 0.0634218 -4.39786 579487 271.474 -57057.1 -65937.8 -465247 -811563 13 11.1691 0.0150452
139 1 8.94305 7.07057 1.85092 -4.37978 338320 -808468 301855 -621141 -235519 278218 14 11.1075 0.0485732
140 1 6.9539 8.82227 1.6287 -4.41027 381717 94646 229888 -83778.6 -446858 -283393 15 11.222 0.0338068
141 1 10.705 7.03049 56.4389 -4.38847 -297490 -276900 -185271 870521 -599575 -236757 14 10.9824 0.0351499
142 1 12.517 8.82216 56.4491 -4.39646 75396.8 -373796 211632 279660 -677578 -210065 14 11.0831 0.0162143
143 1 12.4341 7.09902 1.79334 -4.43045 21649.2 307473 -281347 -572709 493053 -211976 14 11.0197 0.04189
144 1 10.5853 8.81609 1.83478 -4.36574 24824.5 -48640.7 -296146 -367328 -883569 -316280 14 11.113 0.0396111
145 1 13.9933 6.98666 56.4346 -4.36906 -647623 -79705.1 767728 112105 -329791 -63235.2 14 11.2335 0.0790752
146 1 15.9224 8.87968 56.4131 -4.40853 97101.2 194791 590191 515734 246379 253203 15 11.2673 0.023026
147 1 15.7309 6.99906 1.7139 -4.40373 270646 -93540.8 321820 -17256.7 321756 -320245 13 11.2048 0.0922995
148 1 14.1535 8.88493 1.71596 -4.39729 -660394 -205644 81908.9 -164572 -262545 175620 13 10.918 0.0458469
149 1 17.6081 7.024 56.5055 -4.40464 585805 -375696 86505 -336428 119313 329294 14 11.1349 0.0640417
150 1 19.4109 8.93379 0.0292699 -4.37223 -591047 -268878 -628964 -136591 -54737 339651 14 10.8485 0.0154444
151 1 19.4911 7.18639 1.68506 -4.37162 -499641 -647356 -246745 -303144 93021.6 253967 15 10.8473 0.00913969
152 1 17.7018 8.82555 1.6899 -4.41696 152375 223979 -101588 322230 754567 192574 15 11.0836 0.0174597
153 1 21.213 7.17647 56.4998 -4.41792 -94259.8 20854.1 -149432 -108360 497448 78454.4 16 11.0096 0.0422945
154 1 22.9432 8.82418 -0.00292446 -4.39284 -926728 34127.4 -807504 -59215 -64900.7 -176062 14 10.7529 0.0238392
155 1 22.9748 7.0359 1.77726 -4.43497 -168735 68206.1 -10952.3 -407029 249724 70297.5 14 10.9624 0.0214638
156 1 21.0978 8.87993 1.75374 -4.37335 -539149 -1.0416e+06 -762130 -1.05966e+06 92012.5 148921 13 10.6876 0.0160007
157 1 24.6628 7.08293 56.4519 -4.4073 207308 -1.14838e+06 -840249 258658 -91102.3 -204639 15 10.6919 0.0278181
158 1 26.4549 8.84905 56.4625 -4.42011 -341924 -23912.3 -1.04166e+06 22449.9 17924.3 -37744.2 13 10.7458 0.0640265
159 1 26.4926 7.06662 1.72694 -4.40434 -812706 -375466 359842 -634179 216357 -164210 12 10.8627 0.00235848
160 1 24.6902 8.78759 1.65768 -4.43547 103358 521105 403959 -123088 80019.3 -172562 15 11.2122 0.0359136
161 1 28.2959 7.0863 56.4807 -4.41661 -77868.5 -490743 -298367 -446652 23977.4 -241788 13 10.8657 0.0741814
162 1 30.0319 8.81781 0.0267158 -4.42639 -440505 -282856 83466.8 -594839 105301 -327491 13 10.9427 0.147924
163 1 30.0569 6.95252 1.75578 -4.41595 190049 -73402.1 -348814 -328423 -222800 309800 13 10.9686 0.041451
164 1 28.2185 8.71548 1.68395 -4.40919 385400 -293533 -268327 -420783 278020 -32642.7 14 11.0421 0.0693011
165 1 31.8316 7.07166 0.00211333 -4.44429 200285 -27598.4 462567 -77759.2 -12388.3 -660988 15 11.1198 0.0678237
166 1 33.6024 8.79713 56.4213 -4.46982 756312 748130 773685 -215130 -121662 -111259 15 11.393 0.0685612
167 1 33.6393 6.96396 1.69308 -4.40329 410653 -476662 -89578.1 -55253.1 -100115 -603742 14 11.0381 0.0230576
168 1 31.7444 8.78961 1.77944 -4.40434 199101 -606160 -77377.4 -15768.2 -310496 181814 13 10.9514 0.0128406
169 1 35.4625 7.04426 56.3993 -4.39603 -490025 -462269 426223 -150410 -215868 -399716 15 10.9802 0.0317232
170 1 37.0234 8.78581 56.3999 -4.41363 -263461 -585005 86247.3 -428204 302956 -30894.4 15 10.9252 0.0706177
171 1 37.054 7.09797 1.76413 -4.40708 36331.4 561712 301148 562301 206554 -275183 13 11.2643 0.03507
172 1 35.3635 8.73237 1.71265 -4.3891 -528665 106114 -100793 505632 620753 -286347 13 10.9758 0.0420763
173 1 38.8709 7.15346 0.0662279 -4.40777 -650172 -133496 -145264 -353713 -108995 -403629 15 10.8752 0.0227156
174 1 40.5366 8.86738 56.4344 -4.40874 -653354 -345566 -474640 -250924 -185476 -382112 14 10.7773 0.0673074
175 1 40.605 7.06451 1.7141 -4.36676 -1.49533e+06 -830079 -789677 587312 -437062 -563117 14 10.5771 0.0979797
176 1 38.9098 8.88257 1.74985 -4.39141 -196658 -780908 -417859 -214153 149959 -605917 13 10.8209 0.02938
177 1 42.3498 7.15323 0.0429373 -4.43176 -28428.8 -52807.7 -164783 -240779 232704 -261854 15 10.9603 0.0412468
178 1 44.212 8.84723 -0.0018154 -4.41031 -350215 -301364 315650 -629222 -89274.3 218347 15 10.9795 0.020441
179 1 44.178 7.07813 1.69244 -4.40803 256449 -839569 -362492 -517548 -446660 -405777 16 10.8724 0.0302947
180 1 42.321 8.8545 1.72157 -4.4261 135946 -669017 -523464 12908.6 -178654 -256306 14 10.7773 0.0144418
181 1 45.8939 6.92237 56.3599 -4.42028 -265412 213308 131893 -497620 44060.7 54626.9 15 11.0627 0.0604977
182 1 47.6966 8.6408 56.499 -4.37618 -524533 134836 -442393 419689 129658 500812 15 11.0577 0.131966
183 1 47.6207 6.98114 1.70596 -4.43924 365727 -67592.9 345503 -498642 -179353 748721 14 11.1114 0.0328413
184 1 45.8413 8.77782 1.82099 -4.38184 -171978 -252743 -203757 -315056 114411 938400 13 11.0298 0.0556083
185 1 49.431 6.95212 56.3485 -4.37304 -672559 -839593 -439070 249227 -242450 -27268.7 14 10.7401 0.00544996
186 1 51.2419 8.76823 0.00982573 -4.43273 640047 156406 71462.2 305213 25921.7 395784 12 11.1938 0.11017
187 1 51.1623 7.07465 1.72066 -4.42958 480000 -229511 596639 406071 -49855.9 649222 13 11.1474 0.0156536
188 1 49.3526 8.67499 1.70171 -4.38088 -548974 488792 138055 381069 -138418 547327 14 11.2269 0.102482
189 1 53.1068 7.12041 56.4901 -4.4006 99086.5 -303872 -388057 -37760.1 -157329 436982 13 10.9635 0.0612394
190 1 54.7546 8.84176 56.3976 -4.40706 -320744 226455 173937 -422390 -26977.5 426237 14 11.0664 0.0251998
191 1 54.7303 7.01713 1.7634 -4.42617 -508593 256197 160669 -160389 -286728 -338825 13 11.005 0.084996
192 1 52.9947 8.81244 1.78631 -4.44761 534825 230734 224037 -59449.8 -213231 124152 15 11.1232 0.0099829
193 1 0.0582534 10.6406 0.0363225 -4.43432 359805 -245749 -82341.2 259107 -171415 -135368 14 11.0198 0.0945854
194 1 1.86053 12.4144 0.0529972 -4.42415 381027 -50390.5 -366209 1332.14 -157772 -638184 15 11.0121 0.0515628
195 1 1.7976 10.5405 1.7489 -4.44588 -120466 580716 -241631 206537 252181 -371405 15 10.9959 0.0199964
196 1 56.4623 12.3186 1.76558 -4.40942 245974 -593069 -305631 -502825 -106637 33021.1 13 10.8847 0.0116272
197 1 3.56221 10.5687 0.0963314 -4.41594 -277139 -94653.6 -65806.7 -258149 -22881.8 79766.2 13 10.954 0.0510514
198 1 5.2755 12.3692 0.0073826 -4.44256 275606 -77430.6 249058 95956.7 -85832.9 114328 14 11.0298 0.000835177
199 1 5.27177 10.5674 1.78129 -4.41501 -244879 137415 -119592 245315 83761.2 412017 14 11.0008 0.0379653
200 1 3.5367 12.3777 1.7919 -4.40717 -361207 80548.5 -873982 165289 109752 -381938 13 10.845 0.0634163
201 1 7.07964 10.5853 56.4861 -4.40788 1.04928e+06 177357 -127867 -75446.2 -614056 -13944.1 15 11.2645 0.011511
202 1 8.81116 12.4042 0.102795 -4.40144 303215 -23024.8 916463 84250.7 292137 572688 14 11.3181 0.00831693
203 1 8.74993 10.6188 1.70416 -4.37161 -124455 413498 -945296 319630 511756 158265 13 11.0094 0.0455366
204 1 7.03936 12.4299 1.77119 -4.40232 42846.2 -169331 -360397 673624 213284 583035 13 10.9582 0.0162287
205 1 10.6649 10.6277 0.0875764 -4.44917 312424 964433 685381 -372829 -144425 179332 14 11.3666 0.0528893
206 1 12.3373 12.4981 0.0512405 -4.39976 -186171 110184 90301.1 75448.1 85267.7 190966 13 11.0589 0.00366824
207 1 12.4705 10.6712 1.70183 -4.39333 -908897 -352830 -334178 -124208 -255620 127512 14 10.7947 0.0638168
208 1 10.7241 12.4341 1.84981 -4.36643 -37999.2 -190678 -1.27126e+06 481756 -397297 342991 15 10.8591 0.0206274
209 1 14.2313 10.549 56.4474 -4.38465 -273267 -723768 -342188 -251270 53390.8 1.12316e+06 13 10.9178 0.132832
210 1 15.9278 12.3599 0.035801 -4.37438 -859068 -530492 678059 -197318 -660168 284577 13 10.9804 0.0401031
211 1 15.852 10.5874 1.76805 -4.41805 -143549 -117789 -340683 -205790 -66732.4 432049 14 10.8811 0.0181411
212 1 14.1191 12.3463 1.84398 -4.41302 -273046 -563808 43147.7 -384951 -33262.9 679147 15 10.9454 0.126071
213 1 17.5983 10.6161 56.5092 -4.43416 -88576.3 -55020.9 540447 254234 -251070 252621 15 11.0789 0.0502737
214 1 19.4591 12.4032 56.4964 -4.4404 409083 138578 442015 -271025 190010 364148 14 11.1821 0.0243937
215 1 19.3495 10.6634 1.74187 -4.42034 -244327 -26490.8 -733093 5901.04 98076.9 -425388 14 10.8212 0.0523827
216 1 17.5984 12.4691 1.80949 -4.4223 173025 366819 -20055.8 176549 -478032 123061 14 11.0988 0.0227162
217 1 21.1217 10.5919 0.0301514 -4.40653 -1.27471e+06 -358328 22600.3 -696423 194796 134454 15 10.7961 0.138923
218 1 22.823 12.2741 0.0410591 -4.41819 355523 -238088 265525 13864.3 -75247.4 185105 14 11.1635 0.113267
219 1 22.8765 10.5698 1.75648 -4.42463 236652 -239655 144723 -167068 -358111 612261 12 11.0274 0.0390402
220 1 21.2121 12.3821 1.87731 -4.39868 -357149 -603814 -312828 -560499 250921 178989 15 10.8384 0.0500247
221 1 24.7922 10.7018 0.0115204 -4.39273 178900 -301593 -256163 -57728.4 9723.88 -678170 16 11.0273 0.0310262
222 1 26.5309 12.367 0.0286881 -4.41247 255160 -477902 29818.1 -578081 157824 97972.4 13 11.0143 0.0487258
223 1 26.5043 10.5682 1.72256 -4.43019 -13448.6 295724 -12437.6 21575.7 143445 -217955 13 11.0312 0.0059066
224 1 24.6886 12.2771 1.76081 -4.39817 943273 -255863 -333111 -64176.3 98586.5 -184822 14 11.1307 0.0322826
225 1 28.277 10.5926 0.0548924 -4.42619 -415684 -87691.5 -740813 37202.9 149432 -110069 14 10.7249 0.00125179
226 1 30.052 12.3297 0.0830155 -4.4475 83312.8 519727 79537.8 -1174.19 -56335.4 -206478 14 11.0685 0.00827324
227 1 30.0588 10.504 1.80409 -4.42893 -316178 -256949 -294043 517993 -52500.6 -101304 14 10.8365 0.0547645
228 1 28.3078 12.2746 1.81192 -4.41322 -234018 597378 -29858.4 -405668 54939.3 -237147 13 11.0823 0.0139823
229 1 31.7241 10.5397 56.4831 -4.41208 -267334 -459842 -238023 -360153 -257511 -394501 15 10.8127 0.00378149
230 1 33.4905 12.2742 56.5057 -4.44542 100008 203833 99475.2 -124228 470249 145493 15 11.1097 0.129397
231 1 33.4746 10.5338 1.67339 -4.42303 -55551.8 -182038 -523626 41545.4 226067 460199 15 10.8563 0.0270604
232 1 31.7972 12.3097 1.78068 -4.39123 -728678 -325465 -413529 -550698 98366.2 152299 14 10.8085 0.041483
233 1 35.3329 10.6296 56.4892 -4.41655 161229 -375903 -53634.3 135846 -134067 626635 14 10.9765 0.0431869
234 1 37.0881 12.3697 0.0683327 -4.42444 -56658.9 -254748 173267 -113053 -257673 317025 14 11.0082 0.072788
235 1 37.1215 10.5975 1.6661 -4.41835 82210.8 395427 -591738 282062 161286 634287 14 11.0222 0.0875362
236 1 35.2691 12.3355 1.81409 -4.3856 -69486.7 -515714 -642299 462231 488639 -10621.4 14 10.8734 0.0487747
237 1 38.8111 10.6547 56.4238 -4.42487 -332996 215301 -424248 538076 21957.3 112546 15 10.885 0.00799663
238 1 40.7077 12.3529 56.4652 -4.42291 69018.8 -211110 -258597 -394821 70642 474982 14 10.9234 0.0224557
239 1 40.594 10.5515 1.67088 -4.41343 -282263 -391112 -188557 -252084 -114194 -19496.2 14 10.8705 0.0423101
240 1 38.9208 12.4863 1.68702 -4.40442 -180871 108839 -161140 -606822 -180490 428065 14 10.9991 0.028658
241 1 42.4446 10.5639 56.4382 -4.44119 19832.4 -81682.1 253751 -136348 88037.5 120976 15 10.9875 0.0110177
242 1 44.079 12.3187 56.414 -4.3984 -488285 -155079 17943.9 -48001.3 219245 368039 15 10.966 0.038557
243 1 44.1334 10.5718 1.74333 -4.42658 317401 -513121 -25299.7 75757.1 -82744.3 26580.7 14 10.9478 0.0209173
244 1 42.4343 12.3677 1.78169 -4.41054 -44261.9 -297350 -340787 -157381 -121165 789326 12 10.9279 0.058934
245 1 45.9634 10.3906 56.4328 -4.37173 -50742.2 -581882 -330143 -783036 227998 -175858 14 10.946 0.0233826
246 1 47.6913 12.3125 56.4844 -4.38842 -731770 162122 -863367 51500.8 112999 641104 14 10.7826 0.00311261
247 1 47.6799 10.5608 1.77954 -4.43915 416249 584636 598209 345845 140734 346208 13 11.3125 0.0560514
248 1 45.9452 12.2736 1.57919 -4.41869 460453 706502 655474 136868 677542 420489 13 11.4346 0.0621488
249 1 49.5099 10.642 56.491 -4.39719 646978 -59451.5 -173390 148332 -135488 76113.2 14 11.1607 0.00395305
250 1 51.2058 12.407 56.4952 -4.41333 -480321 -203913 -720520 -319755 -296285 -130961 14 10.7377 0.021641
251 1 51.2122 10.6198 1.76653 -4.41648 -492236 463127 24380.9 -77662.1 61536.7 59363.1 15 11.0381 0.0153173
252 1 49.4697 12.3579 1.70836 -4.43727 -52641.9 -409768 -701.297 178074 130423 -263179 15 10.8585 0.000444773
253 1 52.9836 10.621 0.0991686 -4.40311 1156.68 347166 10321.5 -136973 -274985 -237890 14 11.1411 0.02952
254 1 54.7749 12.282 56.4384 -4.42711 254372 79860.6 659534 -120201 -480738 8027.56 14 11.1938 0.0254073
255 1 54.723 10.5911 1.82832 -4.40709 -773049 285756 269952 -30368.2 -458026 36958.8 13 10.9847 0.0137768
256 1 52.8931 12.3102 1.77043 -4.39955 500973 -421291 98310 -95780.4 -411240 49430.7 15 11.136 0.0134423
257 1 56.4618 14.1034 56.4942 -4.43421 -395096 323322 -460537 8694.96 -351002 -38040.4 15 10.9 0.0781355
258 1 1.75029 15.8872 56.4699 -4.40223 180522 -478837 -647403 -15270.6 -333032 -156757 15 10.8962 0.0498897
259 1 1.66285 14.0605 1.72049 -4.38467 469221 -296372 -539394 259752 -144568 -325161 15 11.0571 0.0144591
260 1 56.4616 15.8628 1.74551 -4.41129 -875174 -457652 -709857 -304553 165683 -105272 15 10.6306 0.0288571
261 1 3.65023 14.1656 56.4278 -4.38573 -505361 -409132 -326211 -188914 72481.3 66466.7 14 10.9009 0.0567474
262 1 5.39956 15.8294 56.4665 -4.41288 -400981 -641621 -562285 141063 -98119.4 451751 14 10.7202 0.0163097
263 1 5.37542 14.1731 1.69534 -4.39668 -668248 -403083 -332360 721478 418293 -17259.6 14 10.8363 0.096799
264 1 3.6295 15.8841 1.74494 -4.41444 628970 134656 840055 233561 -89816.3 512446 14 11.3885 0.0247532
265 1 7.10558 14.0719 0.0647587 -4.38836 -689983 -635021 204115 437900 723935 529239 16 10.9013 0.0663233
266 1 8.7675 15.8537 0.02003 -4.44382 251980 167725 330141 77106.8 394714 13998.1 14 11.0939 0.00982819
267 1 8.93828 14.1831 1.86759 -4.41094 -305427 -276081 -200002 -210524 89796.9 -19022.7 13 10.8494 0.00800264
268 1 7.15455 15.9229 1.80463 -4.41894 -741730 -118155 -645211 340861 384901 143877 15 10.7304 0.0657277
269 1 10.5874 14.0849 56.5145 -4.41094 -264268 -170221 613460 362219 113842 167539 14 11.1334 0.135977
270 1 12.3263 15.9355 0.0661151 -4.41562 -332196 784312 -449368 -152402 -534484 439002 15 11.0438 0.0183158
271 1 12.5078 14.225 1.8312 -4.41507 209793 -400701 -134625 -325604 82375.2 -264343 14 10.9526 0.00883408
272 1 10.5846 15.8976 1.76225 -4.44084 -266751 47430.8 396367 -619079 333481 179060 15 10.9928 0.00706196
273 1 14.22 14.0986 0.0434126 -4.41552 308851 584575 41949.1 -22025.8 45603.3 -437336 13 11.214 0.020656
274 1 15.8913 16.0414 56.4457 -4.37139 -684925 -635716 -874670 -271836 447961 -164336 14 10.7003 0.00482119
275 1 15.8505 14.2064 1.79352 -4.42327 -189082 231521 -26982.9 99722.6 -546027 -563174 14 11.0242 0.064057
276 1 14.1225 15.9668 1.66369 -4.40238 -664123 -484813 185699 -476720 -227328 -120729 14 10.8808 0.0197901
277 1 17.5146 14.0899 56.4197 -4.40919 168503 101194 70424.8 -580398 396303 89718.3 15 11.1158 0.0105229
278 1 19.4046 15.9245 56.4978 -4.41931 62703.7 -4756.55 -561170 281969 94274 -224150 12 10.8903 0.014142