ITEM: TIMESTEP
0
ITEM: NUMBER OF ATOMS
16360
ITEM: BOX BOUNDS pp pp pp
0.0000000000000000e+00 5.6512000000000000e+01
0.0000000000000000e+00 5.6512000000000000e+01
0.0000000000000000e+00 5.6512000000000000e+01
ITEM: ATOMS id type x y z c_peatom c_satom[1] c_satom[2] c_satom[3] c_satom[4] c_satom[5] c_satom[6] c_coord c_voro[1] c_keatom
1 1 0 0 0 -4.44936 189535 112976 153209 -28168.2 20528.3 62533.3 12 11.0154 0.0438859
2 1 1.766 1.766 0 -4.44936 185357 170237 180540 19575.8 -15649.3 22819.4 12 11.0154 0.0187907
3 1 1.766 0 1.766 -4.44936 196837 198458 176322 -793.474 -6609.1 -2696.53 12 11.0154 0.00771725
4 1 0 1.766 1.766 -4.44936 187865 193986 191547 -7235.89 8887.16 5890.64 12 11.0154 0.00716144
5 1 3.532 0 0 -4.44936 198118 197032 159313 1078.08 5119.38 -8311.73 12 11.0154 0.0130709
6 1 5.298 1.766 0 -4.44936 112831 114908 198627 -84906 3651.1 3606.71 12 11.0154 0.0530465
7 1 5.298 0 1.766 -4.44936 196178 181979 173557 6614.46 -8104.29 20588 12 11.0154 0.0139286
8 1 3.532 1.766 1.766 -4.44936 195590 177570 78545.5 8228.84 19591.5 -50501.9 12 11.0154 0.0451388
9 1 7.064 0 0 -4.44936 179897 186014 59385.8 -15528.1 51307.8 42187.6 12 11.0154 0.0533802
10 1 8.83 1.766 0 -4.44936 195643 198726 -59910.8 418.537 -28496.9 3799.45 12 11.0154 0.0817287
11 1 8.83 0 1.766 -4.44936 122227 82250.1 140439 94451.6 -66831.4 82454.9 12 11.0154 0.0784651
12 1 7.064 1.766 1.766 -4.44936 164541 198509 152169 3056.04 -39950.6 3565.64 12 11.0154 0.0253174
13 1 10.596 0 0 -4.44936 198303 180659 187957 2947.07 -2277.72 14006.5 12 11.0154 0.00918347
14 1 12.362 1.766 0 -4.44936 158726 197536 190355 -7065.01 18372.6 3240.53 12 11.0154 0.0155192
15 1 12.362 0 1.766 -4.44936 180016 -2682.29 165386 61487 -25034.2 82025.3 12 11.0154 0.0791506
16 1 10.596 1.766 1.766 -4.44936 198089 196655 145551 1213.83 6073.05 -10639.3 12 11.0154 0.0174918
17 1 14.128 0 0 -4.44936 176999 175116 175011 -22705.3 -22755.5 -23718.7 12 11.0154 0.0216021
18 1 15.894 1.766 0 -4.44936 197940 185543 95170.3 -3339.07 -9341.18 -37036.8 12 11.0154 0.0367291
19 1 15.894 0 1.766 -4.44936 99779.6 175352 76653.5 -48162.7 109959 53493 12 11.0154 0.0763215
20 1 14.128 1.766 1.766 -4.44936 139349 59960.9 198396 90832.1 4789.36 -7319.7 12 11.0154 0.0619905
21 1 17.66 0 0 -4.44936 157607 180592 179353 27367.5 -28284.2 18799.3 12 11.0154 0.0245898
22 1 19.426 1.766 0 -4.44936 74217.3 196975 112836 15000.9 103469 -12460.4 12 11.0154 0.0662589
23 1 19.426 0 1.766 -4.44936 168226 119292 160371 -49283.7 34258.8 55256.6 12 11.0154 0.0463297
24 1 17.66 1.766 1.766 -4.44936 122241 197732 148834 -8963.85 -61830.9 -7241.09 12 11.0154 0.0398017
25 1 21.192 0 0 -4.44936 198738 194137 179267 -450.514 -923.441 -9520.51 12 11.0154 0.00755318
26 1 22.958 1.766 0 -4.44936 11666 185540 196531 49777.9 -20522.9 5459.64 12 11.0154 0.0632294
27 1 22.958 0 1.766 -4.44936 197050 198430 178100 780.589 5985.26 -2697.37 12 11.0154 0.0071048
28 1 21.192 1.766 1.766 -4.44936 168855 197011 187518 -7280.64 -18360.3 -4466.73 12 11.0154 0.0134075
29 1 24.724 0 0 -4.44936 163134 190707 168311 -16966.3 -32958.2 -15686.1 12 11.0154 0.0231542
30 1 26.49 1.766 0 -4.44936 70221.2 166960 179861 63961.8 -49320.7 24538.2 12 11.0154 0.0559565
31 1 26.49 0 1.766 -4.44936 198713 189561 179076 -795.091 1162.34 13479.8 12 11.0154 0.00904875
32 1 24.724 1.766 1.766 -4.44936 165465 130398 155761 -47732.2 37859.3 54239.6 12 11.0154 0.0451642
33 1 28.256 0 0 -4.44936 195092 178278 196210 -8697.86 3080.31 7261.41 12 11.0154 0.00835278
34 1 30.022 1.766 0 -4.44936 193630 198506 155407 1193.26 -14949.6 3462.17 12 11.0154 0.0152306
35 1 30.022 0 1.766 -4.44936 151215 154241 189843 -46029 20620.7 19954.1 12 11.0154 0.0315343
36 1 28.256 1.766 1.766 -4.44936 145711 198654 158488 -2608.9 -46243 -2273.26 12 11.0154 0.0291767
37 1 31.788 0 0 -4.44936 181790 197395 197373 -4854.55 4892.84 1397.83 12 11.0154 0.00617539
38 1 33.554 1.766 0 -4.44936 195571 176050 146414 -8544.03 -12968 -34502.4 12 11.0154 0.0244389
39 1 33.554 0 1.766 -4.44936 56091.5 198780 71103.1 -512.141 -134976 -484.453 12 11.0154 0.0843762
40 1 31.788 1.766 1.766 -4.44936 194095 192194 169338 -5556.71 -11747.2 -13927.6 12 11.0154 0.0127073
41 1 35.32 0 0 -4.44936 165383 163004 154913 34567.6 -38277.3 39617.1 12 11.0154 0.0352785
42 1 37.086 1.766 0 -4.44936 3136.62 172047 188673 72322.6 44473.1 -16440 12 11.0154 0.0725543
43 1 37.086 0 1.766 -4.44936 195297 189958 162565 -5545.29 -11234.3 -17876.8 12 11.0154 0.0151437
44 1 35.32 1.766 1.766 -4.44936 145084 26760.2 195817 96110.2 -12618.9 22585.7 12 11.0154 0.0713669
45 1 38.852 0 0 -4.44936 194526 172338 184955 10608.8 -7671.24 19121.6 12 11.0154 0.0138957
46 1 40.618 1.766 0 -4.44936 194585 193997 167899 4481.34 11384.5 -12156.6 12 11.0154 0.0124409
47 1 40.618 0 1.766 -4.44936 179516 -79865.3 103147 73268.9 42924.1 -163244 12 11.0154 0.122817
48 1 38.852 1.766 1.766 -4.44936 191383 42419.6 162720 -34013.2 -16334.4 -75091.3 12 11.0154 0.0623598
49 1 42.384 0 0 -4.44936 183424 156782 194260 25397.7 8333.8 -13781.6 12 11.0154 0.0193114
50 1 44.15 1.766 0 -4.44936 191779 197134 162972 3397.26 -15835.9 7682.27 12 11.0154 0.0138752
51 1 44.15 0 1.766 -4.44936 154455 191872 158490 17501.5 42261.3 -16685.9 12 11.0154 0.0285639
52 1 42.384 1.766 1.766 -4.44936 198434 80957.7 196868 -6402.57 816.034 15017.2 12 11.0154 0.0374759
53 1 45.916 0 0 -4.44936 150283 170687 197457 -36913 8016.51 6101.44 12 11.0154 0.0243166
54 1 47.682 1.766 0 -4.44936 177734 45859.3 197115 -56733.3 -5922.63 -15964.2 12 11.0154 0.054812
55 1 47.682 0 1.766 -4.44936 121639 194580 161217 18003.9 53831.4 -12563.5 12 11.0154 0.0371085
56 1 45.916 1.766 1.766 -4.44936 165565 197785 182749 5754.44 -23077.3 3997.83 12 11.0154 0.0156808
57 1 49.448 0 0 -4.44936 44656.9 197710 170142 12853.8 -66439.5 5540.97 12 11.0154 0.0573712
58 1 51.214 1.766 0 -4.44936 184753 159800 198780 -23385.3 184.036 306.776 12 11.0154 0.0165441
59 1 51.214 0 1.766 -4.44936 136944 198763 142042 -1078.76 59234.2 1033.34 12 11.0154 0.0370111
60 1 49.448 1.766 1.766 -4.44936 162058 198264 192023 -4361.11 -15754.7 -1870.93 12 11.0154 0.0137315
61 1 52.98 0 0 -4.44936 40271.9 191030 179068 -35053.8 55900.1 12362.1 12 11.0154 0.0580385
62 1 54.746 1.766 0 -4.44936 188561 196586 65354.5 4737.95 -36929 17118.6 12 11.0154 0.0455145
63 1 54.746 0 1.766 -4.44936 194941 141882 182490 -14783.4 -7910.57 -30447.2 12 11.0154 0.0240402
64 1 52.98 1.766 1.766 -4.44936 195432 196426 194792 2809.34 -3655.8 3065.92 12 11.0154 0.00302575
65 1 0 3.532 0 -4.44936 196772 192910 152779 -3434.93 9614.72 16434.9 12 11.0154 0.0168158
66 1 1.766 5.298 0 -4.44936 193269 163026 191872 14039.9 -6171.89 15718 12 11.0154 0.0150352
67 1 1.766 3.532 1.766 -4.44936 174809 181484 172485 20363.8 -25107.9 21328.4 12 11.0154 0.0210863
68 1 0 5.298 1.766 -4.44936 -16003.9 198375 188710 9354.84 46511.3 -2025.76 12 11.0154 0.0702997
69 1 3.532 3.532 0 -4.44936 126089 86199.6 185756 90465.1 -30771.9 38295.1 12 11.0154 0.061885
70 1 5.298 5.298 0 -4.44936 197314 124350 15923.2 10452 16382.4 -116664 12 11.0154 0.080752
71 1 5.298 3.532 1.766 -4.44936 195255 87177.3 194549 19840.5 -3863.9 21734.8 12 11.0154 0.0372508
72 1 3.532 5.298 1.766 -4.44936 137702 136091 193565 -61880 17850.3 18084.1 12 11.0154 0.0402537
73 1 7.064 3.532 0 -4.44936 169285 178195 50900.6 -24642.4 66045.3 55176.5 12 11.0154 0.06178
74 1 8.83 5.298 0 -4.44936 195614 198656 139955 -632.056 -13650.4 -2723.87 12 11.0154 0.0193862
75 1 8.83 3.532 1.766 -4.44936 169911 198603 -49657.9 2273.04 84692 -6667.86 12 11.0154 0.0865978
76 1 7.064 5.298 1.766 -4.44936 170153 197627 195226 5750.18 -10089.4 2026.45 12 11.0154 0.0104045
77 1 10.596 3.532 0 -4.44936 177574 163084 134108 -27514.6 -37034.7 -48048.9 12 11.0154 0.0379418
78 1 12.362 5.298 0 -4.44936 65594.1 194300 117764 24433.2 103878 -19056.3 12 11.0154 0.0682472
79 1 12.362 3.532 1.766 -4.44936 174930 152917 81340.8 33075.5 52926.7 -73392.5 12 11.0154 0.0584076
80 1 10.596 5.298 1.766 -4.44936 172162 96555.4 195889 52165.4 -8776.11 17198.2 12 11.0154 0.0411127
81 1 14.128 3.532 0 -4.44936 182558 102312 197461 39561.3 -4629.88 11290 12 11.0154 0.0355813
82 1 15.894 5.298 0 -4.44936 14899.9 187004 192532 -46538.4 33900.9 8579.93 12 11.0154 0.0630113
83 1 15.894 3.532 1.766 -4.44936 187677 197040 197015 -4398.24 4429.93 1754.58 12 11.0154 0.00456062
84 1 14.128 5.298 1.766 -4.44936 187504 175403 184779 16237.9 12567.1 -18093.8 12 11.0154 0.0151857
85 1 17.66 3.532 0 -4.44936 121148 16307.1 195707 -119022 15450.7 23687.7 12 11.0154 0.0821332
86 1 19.426 5.298 0 -4.44936 121340 32583.8 191835 -113449 23194.4 33978.8 12 11.0154 0.078202
87 1 19.426 3.532 1.766 -4.44936 195525 195838 37422.9 -3096.49 22923 21796.7 12 11.0154 0.0522913
88 1 17.66 5.298 1.766 -4.44936 187470 148136 145875 23935.1 24463.5 -51763.9 12 11.0154 0.0358463
89 1 21.192 3.532 0 -4.44936 189465 197568 196622 3363.61 -4486.37 1619.62 12 11.0154 0.0039608
90 1 22.958 5.298 0 -4.44936 141653 116703 109352 68477 71478 -85675.6 12 11.0154 0.0713524
91 1 22.958 3.532 1.766 -4.44936 117015 99569.9 155659 90067.9 59380.5 -65409.1 12 11.0154 0.0699367
92 1 21.192 5.298 1.766 -4.44936 48353.6 181073 198087 -51613.1 -10226.4 -3508.76 12 11.0154 0.0526885
93 1 24.724 3.532 0 -4.44936 198425 184156 197233 -2285.05 -743.586 -4759.5 12 11.0154 0.00515917
94 1 26.49 5.298 0 -4.44936 159090 132536 164327 51278.3 -36980.9 47775.6 12 11.0154 0.0438133
95 1 26.49 3.532 1.766 -4.44936 162112 168546 195461 33298 11036.2 -10021.3 12 11.0154 0.0219163
96 1 24.724 5.298 1.766 -4.44936 167206 65428.1 189118 -64890.7 -17468.6 -35898.9 12 11.0154 0.0544865
97 1 28.256 3.532 0 -4.44936 193966 179890 136452 -9538.7 -17325.9 -34315.3 12 11.0154 0.0268503
98 1 30.022 5.298 0 -4.44936 198502 79575.3 47820.3 -5780.68 6505.22 134148 12 11.0154 0.0844004
99 1 30.022 3.532 1.766 -4.44936 198523 113001 180321 4716.02 -2187.81 39794.6 12 11.0154 0.0326122
100 1 28.256 5.298 1.766 -4.44936 73178.3 173950 170278 -55847.4 -59834.3 -26604.3 12 11.0154 0.0558424
101 1 31.788 3.532 0 -4.44936 140867 158678 189554 48193.7 23118.1 -19237.5 12 11.0154 0.0334693
102 1 33.554 5.298 0 -4.44936 136989 182282 128631 -31931.2 -65839.3 -34022.2 12 11.0154 0.0463257
103 1 33.554 3.532 1.766 -4.44936 160371 89622.8 198742 64752.5 -1241.73 2093.29 12 11.0154 0.0460655
104 1 31.788 5.298 1.766 -4.44936 195515 184291 188987 -6880.24 5656.45 11913.6 12 11.0154 0.00859839
105 1 35.32 3.532 0 -4.44936 151937 177678 91035.7 31441.7 -71044.5 47684.6 12 11.0154 0.0548299
106 1 37.086 5.298 0 -4.44936 120728 170308 172029 -47143.1 -45696.4 -27599.8 12 11.0154 0.0415935
107 1 37.086 3.532 1.766 -4.44936 152469 63187.7 198733 -79245.2 1501.1 2568.49 12 11.0154 0.0567841
108 1 35.32 5.298 1.766 -4.44936 196804 191701 182597 -3742.47 -5657.93 -10705.8 12 11.0154 0.00787818
109 1 38.852 3.532 0 -4.44936 198670 38074.7 137885 4233.49 -2606.02 98927 12 11.0154 0.069192
110 1 40.618 5.298 0 -4.44936 170588 197341 173434 -6372.92 -26733.2 -6042.75 12 11.0154 0.0171587
111 1 40.618 3.532 1.766 -4.44936 123532 124804 198691 -74611.5 2616.13 2593.92 12 11.0154 0.0465989
112 1 38.852 5.298 1.766 -4.44936 197789 174629 198654 4897.96 -357.157 1761.24 12 11.0154 0.00788768
113 1 42.384 3.532 0 -4.44936 198082 138193 169012 6513.23 -4565.56 42470.5 12 11.0154 0.0284173
114 1 44.15 5.298 0 -4.44936 95802.7 191485 184283 -27412.7 -38641 -10286.1 12 11.0154 0.0389395
115 1 44.15 3.532 1.766 -4.44936 197638 144985 140188 7843.46 -8185.67 56144.2 12 11.0154 0.0354313
116 1 42.384 5.298 1.766 -4.44936 184403 141701 126908 -28648.7 -32147.3 -64051.7 12 11.0154 0.0447308
117 1 45.916 3.532 0 -4.44936 197737 195223 198460 -1928.35 -579.693 -1069.88 12 11.0154 0.0015371
118 1 47.682 5.298 0 -4.44936 194350 198276 194104 1498.05 4553.37 -1539.11 12 11.0154 0.00300105
119 1 47.682 3.532 1.766 -4.44936 198746 169595 180126 -1020.3 -815.732 -23335 12 11.0154 0.0149418
120 1 45.916 5.298 1.766 -4.44936 130581 198318 143003 5628.04 -61677.9 5089.77 12 11.0154 0.0388359
121 1 49.448 3.532 0 -4.44936 197614 163373 198070 -6429.68 911.884 5021.84 12 11.0154 0.0116369
122 1 51.214 5.298 0 -4.44936 196795 134212 194395 11328.2 -2952.62 16829.8 12 11.0154 0.02214
123 1 51.214 3.532 1.766 -4.44936 90402.8 135967 163140 82509.7 62151.8 -47316.5 12 11.0154 0.0645485
124 1 49.448 5.298 1.766 -4.44936 82853 198259 185719 -7784.48 -38914.7 -2613.07 12 11.0154 0.0404183
125 1 52.98 3.532 0 -4.44936 150800 198005 198588 6106.9 3049.08 -388.067 12 11.0154 0.0152772
126 1 54.746 5.298 0 -4.44936 198758 62737.6 190541 1818.55 -447.584 33483.4 12 11.0154 0.0450355
127 1 54.746 3.532 1.766 -4.44936 146017 193014 198776 17444.9 575.196 -190.169 12 11.0154 0.0182685
128 1 52.98 5.298 1.766 -4.44936 180575 157094 190642 27550 -12173.5 18420.7 12 11.0154 0.0212318
129 1 0 7.064 0 -4.44936 195590 198246 189364 1307.91 5482.92 -2246.6 12 11.0154 0.00410252
130 1 1.766 8.83 0 -4.44936 -70053.9 156907 101460 106101 -161752 63838.3 12 11.0154 0.127337
131 1 1.766 7.064 1.766 -4.44936 45669.6 146578 195300 -89403.9 -23090.4 -13482.8 12 11.0154 0.0651609
132 1 0 8.83 1.766 -4.44936 183136 34277.7 178472 -50732.9 -17826.2 -57802.5 12 11.0154 0.0625588
133 1 3.532 7.064 0 -4.44936 184343 185607 192021 13792.2 -9879.88 9437.63 12 11.0154 0.0107273
134 1 5.298 8.83 0 -4.44936 -4449.5 198675 30047.9 -4662.37 185181 4248.27 12 11.0154 0.116115
135 1 5.298 7.064 1.766 -4.44936 172287 190669 152703 14661 -34940.7 19334.4 12 11.0154 0.0251802
136 1 3.532 8.83 1.766 -4.44936 188611 170018 158274 17104.2 20297.6 -34134.4 12 11.0154 0.024792
137 1 7.064 7.064 0 -4.44936 171263 181752 197456 -21647.9 6040.55 4751.84 12 11.0154 0.0143163
138 1 8.83 8.83 0 -4.44936 190792 195067 197216 -5448.12 -3536.71 -2411.58 12 11.0154 0.00414136
139 1 8.83 7.064 1.766 -4.44936 198385 167726 189006 -3511.91 1970.41 17424.7 12 11.0154 0.0128668
140 1 7.064 8.83 1.766 -4.44936 196351 134558 181887 -12495.8 6408.99 32939.8 12 11.0154 0.0260738
141 1 10.596 7.064 0 -4.44936 198763 163290 190780 823.776 -391.136 16852 12 11.0154 0.0135793
142 1 12.362 8.83 0 -4.44936 195951 197410 181195 1970.85 7056.43 -4912.13 12 11.0154 0.0068003
143 1 12.362 7.064 1.766 -4.44936 164774 153797 146534 39113.2 42152.7 -48480.4 12 11.0154 0.040957
144 1 10.596 8.83 1.766 -4.44936 -14212.5 198557 182401 6916.65 59068.8 -1918.17 12 11.0154 0.0716526
145 1 14.128 7.064 0 -4.44936 195703 196520 195639 2638.71 3110.52 -2665.91 12 11.0154 0.00264731
146 1 15.894 8.83 0 -4.44936 191573 165109 98939.3 15580 -26827.8 57982.7 12 11.0154 0.0439166
147 1 15.894 7.064 1.766 -4.44936 133695 198277 189179 5734.66 -25000.9 2202.76 12 11.0154 0.0234668
148 1 14.128 8.83 1.766 -4.44936 173217 198411 197937 3078.58 -4647.23 559.632 12 11.0154 0.00835748
149 1 17.66 7.064 0 -4.44936 72391.6 165982 195901 -64386.5 19083.1 9721.41 12 11.0154 0.0505786
150 1 19.426 8.83 0 -4.44936 190599 177542 121445 13183.4 25156.1 -40529.3 12 11.0154 0.033317
151 1 19.426 7.064 1.766 -4.44936 159167 193728 189290 -14149.4 -19391.1 -6926.03 12 11.0154 0.0169021
152 1 17.66 8.83 1.766 -4.44936 108708 194786 184805 18972.6 -35482.3 7473.76 12 11.0154 0.0337191
153 1 21.192 7.064 0 -4.44936 143369 182531 72543.8 -30008.9 -83637.5 -45293.9 12 11.0154 0.0617605
154 1 22.958 8.83 0 -4.44936 198002 185135 193838 3261.7 -1963.1 8213.71 12 11.0154 0.00604497
155 1 22.958 7.064 1.766 -4.44936 167816 137079 170427 43711.8 -29631.9 41828.1 12 11.0154 0.0377688
156 1 21.192 8.83 1.766 -4.44936 69875.5 128217 171876 95374.2 58892.8 -43573.1 12 11.0154 0.0706468
157 1 24.724 7.064 0 -4.44936 152871 97483.8 146663 68195.9 48916.6 -72660.6 12 11.0154 0.0622054
158 1 26.49 8.83 0 -4.44936 166167 181771 143053 -23554.1 42633 30789.5 12 11.0154 0.0328785
159 1 26.49 7.064 1.766 -4.44936 185302 197118 198670 4735.75 -1227.95 431.403 12 11.0154 0.00476086
160 1 24.724 8.83 1.766 -4.44936 184365 189653 198279 -11472.3 -2692.18 -2142.34 12 11.0154 0.007505
161 1 28.256 7.064 0 -4.44936 97455.6 183689 198475 -39105.9 -5574.48 -2151.41 12 11.0154 0.0364272
162 1 30.022 8.83 0 -4.44936 188386 71424.6 153997 -36387.2 -21577.6 -75523 12 11.0154 0.0569659
163 1 30.022 7.064 1.766 -4.44936 198782 198582 198677 -5.845 -4.23489 -144.723 12 11.0154 9.51129e-05
164 1 28.256 8.83 1.766 -4.44936 -303602 197552 117256 24854.6 -202379 10012.4 12 11.0154 0.182608
165 1 31.788 7.064 0 -4.44936 190192 194643 180041 -5962.91 -12688.1 -8807.76 12 11.0154 0.00982122
166 1 33.554 8.83 0 -4.44936 196576 196066 -36527 -2447.68 -22784 -25279.3 12 11.0154 0.0749701
167 1 33.554 7.064 1.766 -4.44936 129689 192842 171242 20257.9 -43621.1 12789.7 12 11.0154 0.0320103
168 1 31.788 8.83 1.766 -4.44936 156244 156464 198641 -42427.9 2452.36 2445.99 12 11.0154 0.0265256
169 1 35.32 7.064 0 -4.44936 145706 63561.5 184726 84716.6 -27313.4 43596.3 12 11.0154 0.0631491
170 1 37.086 8.83 0 -4.44936 179699 185675 103697 15815.1 -42597.3 35302.4 12 11.0154 0.0397195
171 1 37.086 7.064 1.766 -4.44936 147480 198659 195972 2516.01 -12007.3 588.871 12 11.0154 0.0169258
172 1 35.32 8.83 1.766 -4.44936 -107043 186078 198677 -62331.6 -5664.45 -1154.5 12 11.0154 0.0994378
173 1 38.852 7.064 0 -4.44936 130095 187804 184220 27459.8 31626.4 -12643.6 12 11.0154 0.029406
174 1 40.618 8.83 0 -4.44936 197185 186455 147452 -4436.76 -9053.51 -25154.5 12 11.0154 0.0203641
175 1 40.618 7.064 1.766 -4.44936 -12158.3 196167 133980 23485.3 -116916 13017 12 11.0154 0.0868683
176 1 38.852 8.83 1.766 -4.44936 198509 63343.4 64157.5 6083.19 6064.88 -135031 12 11.0154 0.0843653
177 1 42.384 7.064 0 -4.44936 185218 152266 192647 -25118.5 9122.24 16893.2 12 11.0154 0.0206641
178 1 44.15 8.83 0 -4.44936 194322 176512 180551 -9966.28 9017.27 20149.5 12 11.0154 0.0140312
179 1 44.15 7.064 1.766 -4.44936 191460 180165 198535 11675.4 1345.99 -2146.26 12 11.0154 0.00817216
180 1 42.384 8.83 1.766 -4.44936 142654 196275 63422.9 -11862.2 -87163.3 -18421.2 12 11.0154 0.0605408
181 1 45.916 7.064 0 -4.44936 151705 160767 191744 -42303.8 18201.7 16356.3 12 11.0154 0.0287512
182 1 47.682 8.83 0 -4.44936 193403 189064 198656 7230.23 -821.571 1104.26 12 11.0154 0.00475066
183 1 47.682 7.064 1.766 -4.44936 158264 185911 191288 -22836.3 17425.7 9821.2 12 11.0154 0.0190001
184 1 45.916 8.83 1.766 -4.44936 112811 156838 183069 -60049.4 -36754.4 -25672.4 12 11.0154 0.0448227
185 1 49.448 7.064 0 -4.44936 193110 195625 155400 4231.5 -15686.3 11702.7 12 11.0154 0.0162938
186 1 51.214 8.83 0 -4.44936 185706 177779 190548 -16571.8 -10376.2 -13150.7 12 11.0154 0.0132047
187 1 51.214 7.064 1.766 -4.44936 172432 138709 143055 39786.1 38319.8 -57859 12 11.0154 0.0443614
188 1 49.448 8.83 1.766 -4.44936 158665 194721 139281 12764.3 -48857 15545 12 11.0154 0.0323557
189 1 52.98 7.064 0 -4.44936 198769 169144 154359 -630.178 771.519 36285.1 12 11.0154 0.0231169
190 1 54.746 8.83 0 -4.44936 181493 166086 194840 -23775.6 8255.72 11353.2 12 11.0154 0.0168293
191 1 54.746 7.064 1.766 -4.44936 144965 195175 198668 -13932.3 -2475.2 -640.787 12 11.0154 0.0179561
192 1 52.98 8.83 1.766 -4.44936 134256 198776 197591 -604.891 -8766.14 -82.1772 12 11.0154 0.0205104
193 1 0 10.596 0 -4.44936 195974 185053 190840 -6209.02 -4722.52 -10442.3 12 11.0154 0.00763948
194 1 1.766 12.362 0 -4.44936 118883 151017 197911 61777.3 8340.55 -6448.82 12 11.0154 0.0401128
195 1 1.766 10.596 1.766 -4.44936 197164 96862.9 125652 -12839.9 10876.3 86332.7 12 11.0154 0.0551333
196 1 0 12.362 1.766 -4.44936 181663 163133 185031 24703.5 15342.7 -22140.8 12 11.0154 0.0207589
197 1 3.532 10.596 0 -4.44936 186925 198747 141606 -640.512 26037.3 1406.51 12 11.0154 0.0215542
198 1 5.298 12.362 0 -4.44936 196314 125313 193297 13466.2 -3679.48 20074.5 12 11.0154 0.0254099
199 1 5.298 10.596 1.766 -4.44936 177684 187333 198098 15541.8 3797.78 -2797.66 12 11.0154 0.0103703
200 1 3.532 12.362 1.766 -4.44936 197353 180313 198624 -5137.18 475.784 1710.52 12 11.0154 0.0062591
201 1 7.064 10.596 0 -4.44936 192747 161308 185505 -15038.3 8951.34 22306 12 11.0154 0.0177217
202 1 8.83 12.362 0 -4.44936 157118 122852 187617 56245 21568.3 -29116.7 12 11.0154 0.0401824
203 1 8.83 10.596 1.766 -4.44936 -6490.31 197507 197624 16175.4 15415.4 -1214.73 12 11.0154 0.0648195
204 1 7.064 12.362 1.766 -4.44936 198749 196480 -81670 276.722 3054.51 -25407.5 12 11.0154 0.0882509
205 1 10.596 10.596 0 -4.44936 172843 103491 186624 -49717.2 -17758.6 -34037.4 12 11.0154 0.0416273
206 1 12.362 12.362 0 -4.44936 197030 182355 178805 -5364.88 -5916.37 -18115.1 12 11.0154 0.0119075
207 1 12.362 10.596 1.766 -4.44936 192647 54287.9 198590 -29772.4 1084.89 5265.26 12 11.0154 0.0470674
208 1 10.596 12.362 1.766 -4.44936 191130 198403 151237 -1702.85 19074.1 4244.59 12 11.0154 0.0173438
209 1 14.128 10.596 0 -4.44936 198298 101381 182369 -6865.75 2818.35 39982.6 12 11.0154 0.0356695
210 1 15.894 12.362 0 -4.44936 154097 135985 171004 -52972.3 35231.1 41765.4 12 11.0154 0.0422111
211 1 15.894 10.596 1.766 -4.44936 165272 190431 97624.9 16728.4 -58221.9 29064.5 12 11.0154 0.0446324
212 1 14.128 12.362 1.766 -4.44936 176497 131644 80081.4 -38680.3 -51431.6 -89271.3 12 11.0154 0.0649503
213 1 17.66 10.596 0 -4.44936 182838 167617 190959 -22291.3 11168.1 15613.7 12 11.0154 0.0171428
214 1 19.426 12.362 0 -4.44936 97127.3 96724.3 196586 -101856 14942.3 14971.9 12 11.0154 0.0642591
215 1 19.426 10.596 1.766 -4.44936 195983 177526 173664 7713.16 -8384.59 23106.1 12 11.0154 0.0153454
216 1 17.66 12.362 1.766 -4.44936 197681 178197 198395 -4759.87 -652.71 -2822.79 12 11.0154 0.00688838
217 1 21.192 10.596 0 -4.44936 161512 169455 117273 33060.8 -55116.8 48891.7 12 11.0154 0.0462202
218 1 22.958 12.362 0 -4.44936 71582.8 198776 196263 869.839 17900.3 -122.409 12 11.0154 0.0404837
219 1 22.958 10.596 1.766 -4.44936 144971 197107 194449 -9494.66 -15270.5 -2694.38 12 11.0154 0.0186683
220 1 21.192 12.362 1.766 -4.44936 165436 198702 176523 1628.76 27244.1 -1330.7 12 11.0154 0.0173777
221 1 24.724 10.596 0 -4.44936 6747.82 195938 86234.9 23370.9 -147013 17891.8 12 11.0154 0.09594
222 1 26.49 12.362 0 -4.44936 198294 195994 159950 -1166.29 -4352.6 -10405.2 12 11.0154 0.013141
223 1 26.49 10.596 1.766 -4.44936 185622 189134 193544 -11268.3 8302.64 7109.05 12 11.0154 0.00875264
224 1 24.724 12.362 1.766 -4.44936 -145536 93158.5 82859.5 -190704 199785 110653 12 11.0154 0.176592
225 1 28.256 10.596 0 -4.44936 143848 165303 193658 -42885.5 16777.5 13097.7 12 11.0154 0.0291908
226 1 30.022 12.362 0 -4.44936 198034 195222 133995 -1632.3 6963.05 15187.6 12 11.0154 0.0215632
227 1 30.022 10.596 1.766 -4.44936 188545 185562 173507 -11633.5 -16085.7 -18279.5 12 11.0154 0.0152082
228 1 28.256 12.362 1.766 -4.44936 156992 1067.56 128622 -90897.8 -54147.4 -117778 12 11.0154 0.0966384
229 1 31.788 10.596 0 -4.44936 104324 191199 198249 26763.7 7091.95 -2009.44 12 11.0154 0.0320106
230 1 33.554 12.362 0 -4.44936 150130 161315 118605 -42694.6 -62455.9 -54808.7 12 11.0154 0.0518968
231 1 33.554 10.596 1.766 -4.44936 190392 186538 115231 -10135.6 26476.2 31984.7 12 11.0154 0.0325135
232 1 31.788 12.362 1.766 -4.44936 192184 147679 190650 -18362.6 -7324.87 -20384.9 12 11.0154 0.0205446
233 1 35.32 10.596 0 -4.44936 188519 197419 181225 -3739.96 -13423.2 -4891.75 12 11.0154 0.00910722
234 1 37.086 12.362 0 -4.44936 194473 158121 195285 13237.2 3881.89 -11923.9 12 11.0154 0.0151253
235 1 37.086 10.596 1.766 -4.44936 193260 197031 92193.1 -3109.69 -24259.7 -13662.9 12 11.0154 0.0355335
236 1 35.32 12.362 1.766 -4.44936 -13776.2 197899 198717 13699 3713.29 -239.315 12 11.0154 0.06663
237 1 38.852 10.596 0 -4.44936 134083 178120 193987 36562.4 17614.1 -9954.04 12 11.0154 0.0281355
238 1 40.618 12.362 0 -4.44936 171473 104974 193793 -50614.1 11672.1 21633.1 12 11.0154 0.0393545
239 1 40.618 10.596 1.766 -4.44936 190433 111119 151096 27054.2 -19953.8 64655.4 12 11.0154 0.0448448
240 1 38.852 12.362 1.766 -4.44936 163289 98278.7 107873 -59725.5 -56803.2 -95585.8 12 11.0154 0.0708115
241 1 42.384 10.596 0 -4.44936 89605.2 120984 195630 92161.7 18551.1 -15659.9 12 11.0154 0.0593341
242 1 44.15 12.362 0 -4.44936 138217 182462 174884 -31439.6 38044.4 19749 12 11.0154 0.031452
243 1 44.15 10.596 1.766 -4.44936 198610 187648 148848 -1382.08 2926.84 23579.4 12 11.0154 0.0191116
244 1 42.384 12.362 1.766 -4.44936 185852 -132552 186637 -65453 -12531.2 -63435.1 12 11.0154 0.111226
245 1 45.916 10.596 0 -4.44936 194168 198456 152941 -1226.65 14542.8 3866.59 12 11.0154 0.0158476
246 1 47.682 12.362 0 -4.44936 198726 178947 152943 -1054.9 -1603.67 -30153.2 12 11.0154 0.0205128
247 1 47.682 10.596 1.766 -4.44936 197806 95501.5 194740 10039.5 1986.16 -20432.5 12 11.0154 0.0337973
248 1 45.916 12.362 1.766 -4.44936 143798 184380 127258 28140.5 -62710.8 32095.2 12 11.0154 0.0439745
249 1 49.448 10.596 0 -4.44936 192555 164797 70976 -14547.3 28210.8 65904.9 12 11.0154 0.0524342
250 1 51.214 12.362 0 -4.44936 126567 197542 120573 9463.17 -75152 9848.05 12 11.0154 0.0473305
251 1 51.214 10.596 1.766 -4.44936 92012.1 190384 124007 29943.9 -89351.6 25058.9 12 11.0154 0.0592764
252 1 49.448 12.362 1.766 -4.44936 195176 139749 162952 14589.8 11366.5 -45991 12 11.0154 0.0307298
253 1 52.98 10.596 0 -4.44936 188180 198776 198453 -261.021 -1867.42 -45.9761 12 11.0154 0.00341326
254 1 54.746 12.362 0 -4.44936 196364 198437 119662 -913.641 13832.3 5225.94 12 11.0154 0.0255537
255 1 54.746 10.596 1.766 -4.44936 77194.5 174782 35439.8 54019.1 -140927 62611.2 12 11.0154 0.0964093
256 1 52.98 12.362 1.766 -4.44936 188598 181708 192291 -13186.4 -8130.34 -10527.5 12 11.0154 0.0105322
257 1 0 14.128 0 -4.44936 180969 178689 165789 18918.5 24242.3 -25747.2 12 11.0154 0.0221256
258 1 1.766 15.894 0 -4.44936 147827 147581 192724 -51077.7 -17569.3 -17611.7 12 11.0154 0.0337708
259 1 1.766 14.128 1.766 -4.44936 195242 188804 192875 -5942.97 4572.5 7677.36 12 11.0154 0.00606203
260 1 0 15.894 1.766 -4.44936 51999.1 95042.5 169967 -123398 -65034.9 -54674 12 11.0154 0.0871743
261 1 3.532 14.128 0 -4.44936 185508 198058 198770 3100.52 -401.446 93.7685 12 11.0154 0.00437231
262 1 5.298 15.894 0 -4.44936 198782 170049 108711 83.0349 -147.015 50872.8 12 11.0154 0.037076
263 1 5.298 14.128 1.766 -4.44936 183430 -218567 67653.4 80044.4 44867.3 -233937 12 11.0154 0.175957
264 1 3.532 15.894 1.766 -4.44936 159588 198611 179094 2588.3 27778.5 -1834.44 12 11.0154 0.0184289
265 1 7.064 14.128 0 -4.44936 144267 190432 172794 -21334.8 37640 14730.6 12 11.0154 0.0277289
266 1 8.83 15.894 0 -4.44936 107921 190811 197146 -26911.9 -12192.3 -3611.2 12 11.0154 0.0313536
267 1 8.83 14.128 1.766 -4.44936 169909 -379859 143382 -129256 -39994.6 -179044 12 11.0154 0.206879
268 1 7.064 15.894 1.766 -4.44936 194837 189816 198782 -5947.29 -40.6718 -61.3161 12 11.0154 0.00402932
269 1 10.596 14.128 0 -4.44936 198250 190183 161034 2138.39 -4480.42 18016 12 11.0154 0.0146295
270 1 12.362 15.894 0 -4.44936 116221 21266.8 188156 -121061 -29618.5 -43430.4 12 11.0154 0.0844794
271 1 12.362 14.128 1.766 -4.44936 198284 62111.8 164782 -8249.14 4114.47 68167.8 12 11.0154 0.0534175
272 1 10.596 15.894 1.766 -4.44936 197372 102966 7414.37 11621.3 -16423.6 135411 12 11.0154 0.0900629
273 1 14.128 14.128 0 -4.44936 198761 -21851.6 195163 -2141.1 -274.217 -28257.2 12 11.0154 0.0699902
274 1 15.894 15.894 0 -4.44936 197885 188231 167422 3076.73 -5304.41 18189.7 12 11.0154 0.0133592
275 1 15.894 14.128 1.766 -4.44936 197015 197652 176266 1412.87 -6307.33 5043.61 12 11.0154 0.00793058
276 1 14.128 15.894 1.766 -4.44936 197771 2191.88 197281 -14098 -1231.67 -17175.1 12 11.0154 0.0621347
277 1 17.66 14.128 0 -4.44936 182025 126621 189558 -34773.4 12432.1 25798.8 12 11.0154 0.0306276
278 1 19.426 15.894 0 -4.44936 198514 198703 197614 -145.069 -559.174 -303.043 12 11.0154 0.000472603
279 1 19.426 14.128 1.766 -4.44936 197180 177647 183402 5818.39 -4963.48 18029.2 12 11.0154 0.0118952
280 1 17.66 15.894 1.766 -4.44936 128554 198765 179466 -1104.12 36830.9 579.049 12 11.0154 0.0279499
281 1 21.192 14.128 0 -4.44936 133723 197735 152809 -8252.1 -54689.8 -6936.89 12 11.0154 0.0349771
282 1 22.958 15.894 0 -4.44936 195184 197253 160006 -2345.13 -11811.5 -7698.82 12 11.0154 0.0137008
283 1 22.958 14.128 1.766 -4.44936 197220 198289 192508 -877.876 3130.31 1759.4 12 11.0154 0.00259926
284 1 21.192 15.894 1.766 -4.44936 165222 134479 198040 -46454.4 -4988.5 -6905.19 12 11.0154 0.0307721
285 1 24.724 14.128 0 -4.44936 193035 195859 179397 -4098.85 -10554.9 -7527.96 12 11.0154 0.00875545
286 1 26.49 15.894 0 -4.44936 187913 31585 32520.6 -42628.6 -42509.2 -166729 12 11.0154 0.107456
287 1 26.49 14.128 1.766 -4.44936 155293 194852 137924 13072.6 -51445.7 15464.4 12 11.0154 0.0337905
288 1 24.724 15.894 1.766 -4.44936 198770 193954 18910.2 -239.175 -1459.92 -29467.9 12 11.0154 0.0576439
289 1 28.256 14.128 0 -4.44936 195024 181860 193835 -7974.89 4311.76 9148.99 12 11.0154 0.00799745
290 1 30.022 15.894 0 -4.44936 191118 161237 139512 16962.9 -21312.7 47172.8 12 11.0154 0.0326051
291 1 30.022 14.128 1.766 -4.44936 189793 -3881.89 177234 -42682.7 -13917.6 -66082.6 12 11.0154 0.0727762
292 1 28.256 15.894 1.766 -4.44936 197098 131429 112084 10650.3 12083.3 -76415.5 12 11.0154 0.0486009
293 1 31.788 14.128 0 -4.44936 185792 161729 171106 21939 18960.7 -32023.4 12 11.0154 0.0242543
294 1 33.554 15.894 0 -4.44936 192139 157794 91692.1 16501.3 26672.5 -66252.5 12 11.0154 0.0482846
295 1 33.554 14.128 1.766 -4.44936 181068 182616 154548 -16922.4 -27992.1 -26741.2 12 11.0154 0.0243775
296 1 31.788 15.894 1.766 -4.44936 197708 155261 193137 6835.9 -2461.9 15673.9 12 11.0154 0.0156786
297 1 35.32 14.128 0 -4.44936 198717 -5012.48 193390 3634.02 -591.133 33150.5 12 11.0154 0.0653023
298 1 37.086 15.894 0 -4.44936 198564 145847 196091 3395.24 765.534 -11935.4 12 11.0154 0.0174275
299 1 37.086 14.128 1.766 -4.44936 175882 184682 63130.6 -17969 55734.8 43734.2 12 11.0154 0.0538801
300 1 35.32 15.894 1.766 -4.44936 169638 167156 176613 -30359.3 -25418 -26478.2 12 11.0154 0.0258829
301 1 38.852 14.128 0 -4.44936 68310.3 189543 144614 -34719.3 84067.5 22370.9 12 11.0154 0.0605047