ITEM: TIMESTEP
3000
ITEM: NUMBER OF ATOMS
16381
ITEM: BOX BOUNDS pp pp pp
0.0000000000000000e+00 5.6512000000000000e+01
0.0000000000000000e+00 5.6512000000000000e+01
0.0000000000000000e+00 5.6512000000000000e+01
ITEM: ATOMS id type x y z c_peatom c_satom[1] c_satom[2] c_satom[3] c_satom[4] c_satom[5] c_satom[6] c_coord c_voro[1] c_keatom
1 1 56.4481 56.5066 0.0208894 -4.43503 176172 -133667 -74498 9656.35 237827 105089 14 10.9938 0.0949887
2 1 1.65405 1.76272 56.4504 -4.41469 71341.6 650676 186868 101213 80330.5 -73112.2 14 11.1999 0.00823066
3 1 1.72985 56.5059 1.8483 -4.43305 159238 -103816 308615 -192919 8093.8 16416.2 15 11.0508 0.0333282
4 1 56.5151 1.82374 1.75013 -4.45165 439948 390948 295749 182539 94278.6 114567 14 11.1664 0.0548588
5 1 3.49143 0.0582367 56.5062 -4.40575 701539 -654146 -462927 -217197 -221871 -259396 12 10.9349 0.0139013
6 1 5.38333 1.80641 0.0125871 -4.42679 530942 293430 217699 -143415 -101638 426662 13 11.2142 0.0386241
7 1 5.36867 0.015617 1.72256 -4.42195 -273418 -338127 -105087 292836 320711 -173642 15 10.8823 0.0583825
8 1 3.58234 1.67076 1.72865 -4.42532 1.13633e+06 670196 756875 171675 175908 -423691 14 11.5535 0.0277147
9 1 7.0311 56.4549 0.00915074 -4.40465 -538466 414213 -441905 -128483 15623.2 -167021 14 10.9309 0.00521859
10 1 8.91617 1.72683 56.4097 -4.4311 449835 178550 299535 279169 279713 -73632.5 15 11.1979 0.0164002
11 1 8.76492 56.482 1.70846 -4.39719 -464152 -239015 -692255 316280 687837 -942264 16 10.812 0.00636436
12 1 7.11157 1.79483 1.73918 -4.42974 -346851 -44085.2 265126 129944 -502424 -159558 13 10.9788 0.0358083
13 1 10.6178 0.0298252 56.5066 -4.39391 -1.17229e+06 -1.30956e+06 -94562.4 -197521 234512 -101671 13 10.5715 0.0443423
14 1 12.2866 1.71497 56.4979 -4.41529 -178247 -242344 -469091 -318560 -239473 -217367 14 10.837 0.00325733
15 1 12.3974 56.4541 1.7555 -4.40686 -160992 -910410 -758076 318815 148674 -138069 14 10.6867 0.0413158
16 1 10.6346 1.68383 1.80578 -4.40589 -610997 -523555 -855288 162606 609043 -222791 15 10.6667 0.00630819
17 1 14.1006 56.4876 56.4921 -4.40308 -668805 -325240 -78239 640810 5073.08 341453 13 10.843 0.046451
18 1 15.8932 1.76533 0.0538709 -4.43183 176181 677490 129196 95464 -554745 141295 14 11.1661 0.0278754
19 1 15.9024 0.0233549 1.79005 -4.42529 256841 -145216 -38812.7 -542972 -7127.85 25741.1 13 11.0068 0.0267965
20 1 14.0594 1.7747 1.73233 -4.44486 213701 48526.7 -54648.2 251250 62685.1 489236 14 10.9776 0.00147425
21 1 17.704 0.0127387 56.4735 -4.42864 331556 626549 367983 145059 -417235 -575514 14 11.2427 0.00122167
22 1 19.4381 1.80199 56.499 -4.44044 630671 656663 190540 -154961 -169503 -66626 14 11.2506 0.0406124
23 1 19.3892 56.4548 1.66094 -4.42611 -183110 362656 126777 -226998 -218216 -143022 15 11.0547 0.0375239
24 1 17.6067 1.71063 1.75874 -4.41181 79257.6 429132 233875 -310876 -461316 -60477 12 11.1811 0.0398225
25 1 21.1379 56.4232 56.44 -4.42093 -153429 -93138.5 168875 10262.6 194650 -81250.5 15 11.0159 0.0670665
26 1 22.9219 1.67835 56.4266 -4.38512 4644.71 -67223.8 -104075 609517 82423.5 -1.02716e+06 15 11.0598 0.00807812
27 1 23.0147 0.0243034 1.84623 -4.41549 -225967 -115404 -92935.4 241821 -103018 263512 15 10.9846 0.0738271
28 1 21.1597 1.6764 1.73506 -4.43977 590481 494012 473506 -122675 -180288 290365 13 11.3182 0.105334
29 1 24.7256 0.0121031 0.0546124 -4.40312 195411 -538211 -390200 51462.3 -228019 92581.4 14 10.9151 0.0503033
30 1 26.4918 1.82188 56.5065 -4.41067 -765204 539317 -315965 -249373 -378035 185478 14 10.9567 0.070402
31 1 26.535 56.4968 1.7299 -4.41352 -180518 160311 254687 -839337 268962 131714 13 11.1428 0.105852
32 1 24.7432 1.83779 1.71525 -4.41959 -358272 -404145 64552.5 -256171 135861 -420204 15 10.8796 0.0181471
33 1 28.185 0.0404136 56.451 -4.41675 352451 422586 512920 166812 655406 -474818 13 11.3248 0.0417778
34 1 30.0306 1.83409 56.4976 -4.41476 144883 -226728 -723942 143145 -541991 400072 13 10.8874 0.0761001
35 1 30.032 0.193626 1.79773 -4.37035 -195251 -68252.7 -338909 131272 391959 305855 14 11.0758 0.0126104
36 1 28.1615 1.69637 1.69637 -4.35987 -510255 -900675 -657822 -161387 -178429 314388 14 10.7412 0.00233152
37 1 31.8592 0.0740847 56.4944 -4.38138 -756054 54656 -291452 -219270 -595155 -213912 14 10.9229 0.0253493
38 1 33.5429 1.73271 56.3791 -4.40531 -464374 -22701.9 503142 -1.12075e+06 426348 -142020 14 11.0885 0.0326685
39 1 33.5319 56.4104 1.70285 -4.418 302244 443082 147265 284754 -443656 -230647 14 11.2312 0.0380651
40 1 31.8379 1.77661 1.67445 -4.41353 511779 265389 119872 -305186 -67611.2 -110993 12 11.2222 0.0265134
41 1 35.4797 56.5 -0.00174069 -4.42085 276636 -587349 30044.9 -130417 330527 286173 14 10.994 0.0555555
42 1 37.1205 1.7401 56.4192 -4.37851 -479395 -867332 -663639 -426367 565840 238823 14 10.7307 0.0279781
43 1 37.1675 0.110046 1.86051 -4.40118 -517560 -4876.78 -323299 -59774.3 -679298 322519 15 10.8951 0.0149909
44 1 35.3766 1.80916 1.67994 -4.41831 220658 -287592 635205 138747 233221 425814 16 11.2463 0.146328
45 1 38.8115 56.4925 0.0321147 -4.44202 -225698 -44724.7 313280 567482 -149994 163259 15 11.0139 0.0775222
46 1 40.5953 1.76329 56.5153 -4.4437 632418 171525 720315 133027 -157317 -374296 15 11.2679 0.0313584
47 1 40.649 0.0506285 1.80529 -4.44432 349106 259447 192836 65820.4 561037 -114831 15 11.0907 0.00624402
48 1 38.8686 1.85516 1.83429 -4.43081 110235 104401 304762 -57664.2 136496 684801 14 11.1178 0.0634216
49 1 42.3716 0.0742801 0.043556 -4.42723 -311714 309184 790272 -131606 -6434.5 118102 15 11.1561 0.0167281
50 1 44.11 1.71356 0.0424943 -4.40229 -268212 -103650 244860 -349755 -520255 -10076.9 13 11.0372 0.0254156
51 1 44.1878 0.0638615 1.8405 -4.40674 193113 -185776 -380249 -215423 -356546 360691 14 10.9891 0.0434678
52 1 42.4106 1.76889 1.8639 -4.40299 -691629 -728866 -243826 86318.1 -300878 -155422 13 10.734 0.0616557
53 1 45.9629 56.3862 56.4712 -4.42078 -15546.5 251768 -21176.7 132600 -390988 -279111 14 11.0742 0.0303247
54 1 47.7799 1.69687 0.0400429 -4.39521 -135804 -575896 -780446 -190375 355149 245388 15 10.7907 0.011363
55 1 47.6658 0.0364136 1.72698 -4.42609 565077 -447213 -163550 280686 -76150.9 -70102.1 17 11.0262 0.0485606
56 1 45.9325 1.76297 1.70226 -4.40383 -48611.6 -628944 -112695 -53645.1 -491103 545293 13 10.9251 0.0760202
57 1 49.551 0.0276295 0.00999033 -4.40251 -779717 -1.35476e+06 -189176 245939 -132166 -162665 14 10.5933 0.0276013
58 1 51.2435 1.7576 56.5044 -4.42203 -565666 -509503 -650485 -409592 -223868 -246829 14 10.6599 0.0190588
59 1 51.2456 0.0424282 1.82531 -4.40628 -192064 -589480 -737554 -54475.8 -382633 254765 13 10.7341 0.0133887
60 1 49.4997 1.77096 1.75551 -4.42874 -109692 -338627 -316921 231595 -339159 -553424 13 10.8332 0.0163899
61 1 53.0042 56.4944 56.47 -4.44235 33946.1 57356.9 674562 530329 -204836 -279418 15 11.1274 0.0367472
62 1 54.6991 1.76567 56.4663 -4.4121 -212528 -661886 -908715 23106.7 389340 -343615 15 10.7417 0.11968
63 1 54.7529 0.013489 1.78837 -4.4274 -185700 62933.4 -439467 195889 176573 371539 14 10.8958 0.036595
64 1 52.9616 1.79184 1.64521 -4.37917 -1.05547e+06 -243025 189471 -824731 132112 119086 14 10.8976 0.0136792
65 1 56.4659 3.57944 0.018492 -4.38812 -166716 -1.02366e+06 -863243 550178 209045 -160282 13 10.6973 0.0539508
66 1 1.74309 5.35509 0.0222932 -4.41765 -326155 -20983.7 -507314 -112045 -21840.3 110393 14 10.9251 0.162827
67 1 1.78966 3.58602 1.77862 -4.41563 -90596.4 304012 -22151.5 -246014 222508 41976.3 14 11.0898 0.0614269
68 1 56.4772 5.23555 1.70257 -4.40461 -7726.74 -159909 -810327 450243 -143548 -359104 15 10.8822 0.0493736
69 1 3.47369 3.58939 0.0669327 -4.4269 759605 795334 53829.5 190759 700979 -339930 14 11.3259 0.019685
70 1 5.36677 5.35448 0.00442324 -4.401 -295509 -973083 -182594 180309 9357.15 -158748 14 10.7634 0.0308834
71 1 5.41477 3.57918 1.72058 -4.42456 346944 125217 484492 516533 -297711 -300316 13 11.2001 0.0101109
72 1 3.61268 5.22549 1.81926 -4.40095 -121023 -889815 -395556 98243 94338.9 -116238 13 10.7518 0.0184424
73 1 7.09629 3.58817 56.386 -4.38935 -283312 87305.9 -76769.2 -292804 289520 230888 14 11.0427 0.00267063
74 1 8.81475 5.36982 56.5021 -4.39984 -598711 -254734 -429483 -309396 -128811 -68300.8 14 10.8064 0.0120054
75 1 8.94535 3.45977 1.826 -4.37733 -468703 -98247.6 -104778 -530090 -152285 393637 15 11.0304 0.0101149
76 1 7.15302 5.34655 1.72613 -4.42889 35440.3 310650 -511876 -564320 441314 279242 13 10.9632 0.020501
77 1 10.5978 3.58401 0.0242949 -4.42217 -405734 218645 -442138 -258612 -77458.8 -475329 14 10.8706 0.00233075
78 1 12.3506 5.2799 0.00908533 -4.40431 -834647 -766776 -456332 -360370 -184954 -460358 13 10.6334 0.0310007
79 1 12.312 3.47049 1.74461 -4.45352 -635001 11046.3 146245 -101992 135068 144368 15 10.8764 0.0634193
80 1 10.5187 5.26754 1.71152 -4.40239 -331715 -848867 36315.3 -114919 -146385 -239069 14 10.8289 0.00912366
81 1 14.1302 3.57639 0.117503 -4.41097 70605.1 -152101 -379631 230316 -202961 -164975 15 10.9449 0.0184421
82 1 15.8416 5.39416 0.0596757 -4.42833 370723 -598934 -243416 19296.1 -230857 151130 15 10.8915 0.0361687
83 1 15.9004 3.63691 1.73465 -4.42204 -124868 599778 -581341 3121.63 -26559.4 223301 14 11.0003 0.0610693
84 1 14.0021 5.28349 1.76528 -4.38628 -452147 -1.12529e+06 -1.17217e+06 204747 -133154 -626358 13 10.5503 0.0322251
85 1 17.6054 3.62743 0.0104128 -4.40552 -132919 614917 -372810 -46238.5 -372732 -366163 13 11.0464 0.0193792
86 1 19.5009 5.30127 56.4689 -4.42784 1.10419e+06 537872 -18114.5 -276665 127147 291660 14 11.3097 0.014772
87 1 19.4351 3.56478 1.68654 -4.43148 789052 477754 175669 234777 -268638 109125 13 11.3227 0.126626
88 1 17.718 5.34154 1.75736 -4.42715 500606 -118250 33134.4 -250759 17460.4 -347144 13 11.0591 0.0321911
89 1 21.3354 3.51794 56.5016 -4.42232 330830 309900 463625 -18735.7 98928.5 -92353.6 14 11.2391 0.0374528
90 1 22.9224 5.3881 56.4954 -4.4141 -134776 -206852 489262 757866 -179081 -259155 15 11.0713 0.0362037
91 1 22.9616 3.4577 1.78099 -4.40537 -449808 613458 -540484 604598 -71008.6 495634 15 11.0125 0.0737216
92 1 21.2824 5.33499 1.85518 -4.40834 570181 -60958.4 -110940 116182 7323.47 628608 13 11.1177 0.0323533
93 1 24.5895 3.66044 0.0168584 -4.42434 532192 162202 -264690 316445 -17544.5 -568020 15 11.1012 0.011567
94 1 26.5081 5.3241 0.010309 -4.41038 -500298 -270289 37108.9 340789 250005 -313154 12 10.8751 0.00980682
95 1 26.3446 3.59233 1.8062 -4.38065 -443411 -944784 -78179.1 242682 155272 126470 14 10.8147 0.0134849
96 1 24.7872 5.3131 1.75092 -4.37386 -622881 -584099 -15357.7 749633 60833.1 -282035 14 10.9054 0.0434437
97 1 28.1901 3.58331 0.125387 -4.42221 -162695 -642639 -381469 122055 -273493 -453168 14 10.7592 0.00699039
98 1 30.0407 5.31279 0.0263941 -4.38943 -743772 -344968 -1.46002e+06 419130 252576 -113479 13 10.5854 0.0204263
99 1 29.9576 3.55918 1.80718 -4.42985 -15013.3 778941 21983.4 -196242 68458.4 376220 15 11.1461 0.0229024
100 1 28.2308 5.38503 1.75078 -4.43036 65878 -615383 14255.8 325847 -78512.7 6622.98 16 10.9671 0.152593
101 1 31.8087 3.58743 56.5048 -4.42197 459339 -398891 -165418 -55307.1 78167.1 785747 14 11.0013 0.016895
102 1 33.5907 5.29736 -0.00215118 -4.40465 186169 -1.15788e+06 -178507 -239388 -190844 380536 14 10.8862 0.125344
103 1 33.7277 3.59838 1.71567 -4.33843 -431044 74347.6 -933526 -110105 923612 210988 14 11.0031 0.0391418
104 1 31.7053 5.27751 1.84125 -4.38935 122536 -564915 97239.4 204966 -661630 453062 14 11.0286 0.0309806
105 1 35.1952 3.47692 56.4835 -4.35699 -360515 -104392 -935996 69926.2 916709 215165 15 10.9115 0.0216916
106 1 37.0623 5.28498 56.4779 -4.43522 892215 533729 647310 638683 129667 -33147.7 14 11.4009 0.0321409
107 1 37.0534 3.53253 1.72924 -4.41674 100185 -252695 1.01459e+06 537596 143041 545760 15 11.2126 0.0254577
108 1 35.4346 5.2507 1.80787 -4.39255 -430721 89546 505586 -81505.2 15468.3 292313 15 11.1241 0.0261456
109 1 38.8418 3.55459 56.512 -4.4152 19513.3 378325 167156 36533.4 -444018 -234362 13 11.1184 0.00425069
110 1 40.6532 5.2801 0.022051 -4.41871 543476 -224870 -5479.39 185862 70668.8 -455993 13 11.0667 0.0230085
111 1 40.7491 3.53938 1.73586 -4.42527 229306 73445.4 40877.4 -29728.5 -260547 -89567.3 15 11.1184 0.0981752
112 1 38.9149 5.3577 1.7756 -4.39499 -263178 49278 -149099 -669237 51082.5 282952 14 11.0213 0.0194785
113 1 42.4197 3.44494 56.4615 -4.44006 2035.08 652356 356586 271895 53291.3 -372915 15 11.1855 0.0453533
114 1 44.2107 5.27781 56.4682 -4.39411 -791701 18286.6 -1.00256e+06 311695 -154367 -29350 13 10.7364 0.0333647
115 1 44.1106 3.50537 1.80485 -4.41271 -1.02683e+06 -442135 63584 -360189 101145 158636 14 10.7579 0.0395708
116 1 42.5002 5.29492 1.75882 -4.45781 244445 160630 736223 41467.6 -80555.8 120716 15 11.1489 0.0189855
117 1 45.8663 3.46736 0.0682785 -4.38889 345648 -784380 -589670 -50521.9 300285 475635 14 10.9345 0.0545988
118 1 47.6035 5.27116 56.4884 -4.4189 352843 84169.9 -400478 53244.1 514736 199781 15 11.0071 0.00813503
119 1 47.7507 3.50847 1.70234 -4.44274 136200 19477.1 -83340.7 -143935 130606 136192 16 11.0482 0.153032
120 1 45.7997 5.19801 1.68531 -4.37656 -327532 -547803 -498213 -47549.1 -423575 -145380 15 10.8651 0.0285869
121 1 49.4043 3.47559 56.4203 -4.35924 -456101 -626396 -1.24981e+06 -255133 1.12423e+06 539510 14 10.7167 0.0263594
122 1 51.2501 5.33404 56.3858 -4.39258 -919113 -357505 -333431 537841 267459 -386293 14 10.763 0.014116
123 1 51.2313 3.55492 1.68325 -4.44262 60828.3 -436493 571086 263959 377238 -352568 15 10.992 0.0155395
124 1 49.5732 5.28105 1.70591 -4.42353 381332 154904 340118 543425 87134 302010 15 11.2189 0.064115
125 1 52.942 3.55231 56.3649 -4.38834 -171885 -1.13386e+06 -916197 170802 -344901 -225988 13 10.6584 0.0239337
126 1 54.7921 5.27799 0.018696 -4.41039 -705612 95159.1 -279323 189117 -297068 -23745.3 14 10.8764 0.0296364
127 1 54.6413 3.41163 1.64431 -4.38235 -360067 -510507 -24181.8 -402113 216557 -224497 15 10.943 0.0305102
128 1 52.9583 5.29443 1.71353 -4.46712 141126 397353 810136 -224595 25080.8 120119 15 11.1703 0.0281538
129 1 56.4189 7.11253 0.0226572 -4.41008 -188722 -158508 -29667.7 124024 165197 -514744 14 10.9616 0.0153068
130 1 1.83828 8.74128 56.4759 -4.43146 513636 22434.8 256806 -128645 -126314 17630.8 14 11.1269 0.00697248
131 1 1.83826 6.96025 1.79965 -4.42745 307050 -13767.9 -223605 364342 471998 -84229 15 11.0469 0.0929991
132 1 0.110004 8.70301 1.78405 -4.41898 378317 150443 -374110 17014.3 -166734 -654980 15 11.0227 0.00582255
133 1 3.59247 6.97424 0.0880245 -4.3942 -514485 125828 304036 221709 -346330 -139952 15 11.0745 0.0418717
134 1 5.26359 8.86718 56.4766 -4.45251 555990 516798 443263 -115028 263080 462782 14 11.2395 0.00692563
135 1 5.29035 7.13396 1.72247 -4.40621 -489084 361672 -974135 -201095 -100355 -18508.8 14 10.8254 0.0460328
136 1 3.5105 8.93329 1.75841 -4.42262 -273213 110961 171811 272594 -79488.5 -236026 15 11.003 0.0141395
137 1 7.04169 7.06324 0.0291217 -4.42238 -335167 -285114 283986 -446780 77657.8 382705 16 10.9594 0.0377688
138 1 8.78613 8.78593 56.4513 -4.43718 454740 -121834 -129958 189372 100640 16865.7 14 11.0443 0.0563658
139 1 8.93428 7.0526 1.82134 -4.42949 -149581 -228487 206290 -36962.6 270804 -483490 15 10.954 0.0133936
140 1 7.08384 8.8528 1.81846 -4.43803 636416 -26089.6 242995 -477791 71200.3 545167 13 11.1588 0.0588795
141 1 10.5812 7.01744 56.4774 -4.43799 -353717 149226 -320473 -298846 -84764.6 322449 14 10.9475 0.158559
142 1 12.2878 8.8777 56.4338 -4.42978 384625 312238 -116497 261145 -196182 -336524 12 11.1379 0.0891806
143 1 12.2827 6.99908 1.76002 -4.4312 -25871 -233233 -406258 192534 -250926 -384423 14 10.879 0.041547
144 1 10.5945 8.85648 1.75993 -4.39663 -450927 -533671 181129 -195157 312161 -808663 14 10.9342 0.042534
145 1 13.9831 7.0414 56.4469 -4.42963 -67706.4 -77452.7 -47557.1 -118434 -34912.9 -408747 14 10.9604 0.0273046
146 1 15.8811 8.7933 0.042283 -4.37356 -407165 -1.21904e+06 -531576 876407 356786 -385197 14 10.6989 0.020488
147 1 15.7533 7.07986 1.78903 -4.41163 428210 -709198 -1.11713e+06 -45119.8 364635 424613 16 10.7931 0.0644736
148 1 14.0357 8.83056 1.70728 -4.41479 -484044 -683430 79724.4 -29479.7 457330 -247614 14 10.8586 0.0791508
149 1 17.5821 7.15726 0.0400465 -4.39217 391708 -286169 -48812.2 259492 -214278 408107 14 11.1104 0.0376239
150 1 19.4914 8.86655 0.0162279 -4.41368 -247649 271269 300119 253065 -78737.2 198587 12 11.1338 0.104147
151 1 19.49 7.06592 1.72094 -4.42331 328471 856237 953432 -170078 301571 169551 12 11.4428 0.0205451
152 1 17.6223 8.78339 1.86041 -4.42657 685446 40769.4 374353 388655 86938.5 163022 15 11.2124 0.00183128
153 1 21.2722 7.12228 0.0886677 -4.40291 -226567 -207072 492366 256358 514754 248686 14 11.0272 0.00912409
154 1 23.0365 8.79094 0.049139 -4.42069 -311854 429515 493682 -269152 -491047 63592.1 14 11.1682 0.0646915
155 1 23.0897 7.11086 1.85246 -4.40843 186062 -521774 -569278 -167674 -415423 88060.5 13 10.8997 0.103686
156 1 21.2299 8.86112 1.86734 -4.42009 372881 -183436 -130195 143596 -537108 137335 13 11.0238 0.0436677
157 1 24.8542 7.11172 0.0211803 -4.45336 576288 476387 393708 588421 -71303.6 -140501 15 11.264 0.0579763
158 1 26.7284 8.8136 0.218863 -4.34905 -63198.5 -580672 419163 76976.6 195468 -82494.1 14 11.2176 0.0130499
159 1 26.4663 7.05518 1.86332 -4.39726 -703451 -576954 -964089 115429 -462460 376334 15 10.695 0.13428
160 1 24.7984 8.9182 1.69966 -4.38804 -513827 -379275 -903992 4142.2 -414251 607622 13 10.7092 0.00965852
161 1 28.2591 7.01767 56.4689 -4.37966 -43253.5 -878679 205044 444212 363697 -222523 14 10.9737 0.0125155
162 1 29.987 8.84551 0.219247 -4.40535 -180089 584424 -222754 -175735 25466.9 -44443 14 11.1445 0.0502029
163 1 30.057 6.98195 1.79551 -4.41322 9707.12 -789842 187224 431352 -369027 -134479 15 10.9239 0.020231
164 1 28.381 8.8171 1.91825 -4.35336 -1.38697e+06 877052 -1.29838e+06 -36519.3 -194130 200223 15 10.8471 0.0589125
165 1 31.8521 7.10151 0.0107684 -4.42564 -512119 279870 -115946 -397353 -547777 -194077 15 10.9409 0.0364238
166 1 33.6166 8.71923 56.4925 -4.41987 -204782 -63222.7 611117 -507720 -84903.4 230873 15 11.0946 0.0125154
167 1 33.5222 7.02358 1.72663 -4.42713 564983 448880 -517052 -88077.9 -179104 129284 14 11.118 0.052433
168 1 31.7923 8.89345 1.74148 -4.37687 -1.22838e+06 -378866 -1.17982e+06 188425 -99937.3 465111 15 10.6466 0.148829
169 1 35.2878 6.97326 56.4915 -4.42075 -282812 -186680 950910 85190.8 104069 7842.8 15 11.1155 0.0370789
170 1 37.0701 8.75854 56.4218 -4.38759 471015 620460 -526234 29621.1 -272760 -78375.9 15 11.2534 0.0447441
171 1 37.1509 7.15385 1.75757 -4.41398 593071 -153967 208277 -31526.6 -187181 104908 14 11.1386 0.00715504
172 1 35.3412 8.84021 1.71615 -4.4191 119202 631502 757217 -135718 -391846 278086 13 11.2923 0.00832132
173 1 38.9492 7.03495 56.4815 -4.42107 33313.3 161916 -304346 217028 -171900 118663 13 11.0092 0.0666651
174 1 40.5778 8.95749 0.0201315 -4.34753 -1.02975e+06 146906 -571047 -565527 -154918 53256.2 12 10.9001 0.0282116
175 1 40.5954 6.97088 1.75417 -4.36734 -963238 -722126 -25123.8 -829172 -530703 -242195 14 10.8106 0.0302934
176 1 38.9551 8.7798 1.72222 -4.4057 148785 255330 59928.4 -400491 555507 392995 15 11.1776 0.0140895
177 1 42.4626 7.05895 56.4645 -4.4277 373754 209138 27802.2 -510612 -106753 -98879.4 14 11.1445 0.0260292
178 1 44.1133 8.80633 56.4781 -4.38314 -819148 -567930 926032 58080.8 -164989 -173011 13 11.0086 0.0384165
179 1 44.2425 7.04136 1.70277 -4.40476 -10433.3 171680 51664.9 -5846.96 223229 -135132 14 11.1211 0.0429109
180 1 42.2491 8.76565 1.82997 -4.42332 607111 418188 295814 -512976 150854 397384 14 11.2992 0.0626923
181 1 45.869 7.09261 -0.00392874 -4.41551 -567610 544871 -280976 191312 510338 260956 15 10.9563 0.0155957
182 1 47.7626 8.8524 56.4093 -4.41 470145 202095 -138373 -234536 447915 -186047 15 11.1682 0.0471157
183 1 47.6485 6.97859 1.69871 -4.41422 702377 760827 199595 154285 376350 119426 15 11.3547 0.0074733
184 1 45.979 8.84937 1.79643 -4.4028 327438 -741518 -99475.1 -437030 -6489.72 395956 14 11.0392 0.167627
185 1 49.5288 7.00208 0.0487929 -4.41764 294312 -281937 135278 202157 303130 331506 15 11.0392 0.0135929
186 1 51.1868 8.79786 56.4628 -4.42506 -232451 -749146 32142 200243 -96522.5 77505.2 15 10.811 0.0286926
187 1 51.3326 7.13456 1.74748 -4.38446 -815936 -322131 -76969.4 -510254 -363477 -86352.7 14 10.8547 0.0214323
188 1 49.4486 8.76978 1.84769 -4.45312 797994 894232 722953 164618 385453 234280 15 11.4107 0.0106234
189 1 52.9588 7.10946 56.4082 -4.38796 -132101 -929903 -900746 -385153 578141 222775 15 10.7169 0.0163036
190 1 54.7082 8.77819 0.0756031 -4.39245 -371977 -1.14444e+06 -104174 356528 100589 -396190 13 10.7521 0.0224334
191 1 54.7058 7.01136 1.74851 -4.41417 196487 -754566 -416020 135461 496529 -191187 13 10.818 0.0155219
192 1 52.9955 8.74448 1.81813 -4.36669 -1.2517e+06 -936444 -177648 -614343 457635 246656 13 10.6683 0.0252029
193 1 0.0198997 10.4925 56.4952 -4.43546 236689 1.2164e+06 78256.3 99503.3 761632 -224681 16 11.3252 0.0255693
194 1 1.8607 12.3675 0.0369047 -4.40607 -57921.8 -126350 583455 2940.08 155917 557262 15 11.1969 0.0710315
195 1 1.79447 10.584 1.7251 -4.4374 -318945 -27660.5 333497 562642 274176 265879 15 10.9602 0.0298896
196 1 0.0302108 12.3525 1.78694 -4.37892 277700 -799422 -432282 146348 -215112 1.35616e+06 13 10.9632 0.0615578
197 1 3.44956 10.5867 56.3923 -4.41073 -117237 -406416 473123 146751 89724.2 231361 14 11.0244 0.029882
198 1 5.24645 12.2964 56.4153 -4.44295 -297777 800656 109599 20330 548398 -118036 15 11.128 0.0697029
199 1 5.24541 10.6238 1.88876 -4.34635 -723400 -780105 9143.12 97807.1 806097 -144687 16 10.9328 0.0304613
200 1 3.6358 12.3151 1.69275 -4.39587 -514224 -657757 -395801 182400 -170680 435845 14 10.77 0.0150886
201 1 7.06822 10.5495 0.0273897 -4.4218 -190769 -277092 103748 -301202 -175569 1267.17 13 10.9309 0.0240988
202 1 8.74296 12.2938 0.123108 -4.36421 -729157 -395730 -557928 31653 -191288 -70969.4 13 10.8525 0.058378
203 1 8.86643 10.5179 1.67622 -4.39106 -468296 -673146 -212437 -293070 -260492 527692 15 10.819 0.0131512
204 1 6.97441 12.3623 1.74292 -4.43155 1401.45 -36281.1 257902 -359555 521641 191760 14 11.0314 0.0152006
205 1 10.5906 10.6701 56.3727 -4.39801 -313441 77831 -546323 517589 -193864 167478 14 10.9111 0.0245757
206 1 12.4439 12.4097 0.11695 -4.41877 586045 743394 310591 -89500 306170 457454 15 11.3572 0.00799465
207 1 12.3043 10.5335 1.66384 -4.39972 -530421 -790895 -163563 -228522 -220617 -273196 13 10.7453 0.00535707
208 1 10.5337 12.2828 1.73768 -4.42285 -297726 550599 94175.6 -51584.7 -259505 123071 14 11.0977 0.0634835
209 1 14.206 10.5564 56.4763 -4.39591 -282443 -411085 -476508 -20934.9 175515 648546 14 10.8737 0.0614694
210 1 15.8946 12.2816 56.4797 -4.39986 134514 -703438 -466578 -252568 144401 -1.1749e+06 15 10.902 0.0412827
211 1 15.83 10.4017 1.75857 -4.3947 -268087 -124029 9641.09 197412 -38451.2 -624639 14 11.0426 0.0150703
212 1 14.1072 12.2115 1.86663 -4.35976 -286156 -301309 -890671 -212827 -710548 443815 14 10.8998 0.0215199
213 1 17.6695 10.4892 0.00921601 -4.42777 -54222.5 186026 25931.9 233687 -282777 -580505 15 11.0369 0.0190186
214 1 19.4083 12.3804 0.0697566 -4.43989 318093 152262 534446 -158879 427495 -14730.6 13 11.1928 0.0615071
215 1 19.4571 10.5667 1.80315 -4.41951 -209962 472892 35143.2 451069 183767 -174828 12 11.0466 0.0110561
216 1 17.6719 12.2667 1.80256 -4.42568 336710 265096 345265 795786 256123 291730 14 11.1759 0.00377515
217 1 21.2615 10.6037 0.176881 -4.42676 551226 265969 380268 -427409 474504 41130 15 11.2433 0.0236375
218 1 23.0172 12.3349 56.5037 -4.45405 506362 323819 790345 -334479 51287.6 -173236 14 11.28 0.0660553
219 1 23.036 10.6549 1.96208 -4.35438 -54071.1 -415137 -595327 122478 -718518 -296397 13 10.988 0.0315735
220 1 21.2116 12.3933 1.81338 -4.43007 630.823 -425806 -134755 -100263 -265758 -51068.3 13 10.8784 0.0536801
221 1 24.7854 10.5593 56.5117 -4.40905 762831 -44303.6 -415597 -277546 66111.8 547317 14 11.1492 0.0676509
222 1 26.5438 12.3517 56.4544 -4.41096 -112252 -375803 -390670 422284 46625.8 271615 13 10.8698 0.0479885
223 1 26.5915 10.6707 1.71416 -4.38684 1789.68 -471628 -192845 -446332 287587 225034 15 10.9897 0.00138142
224 1 24.822 12.4094 1.8002 -4.42285 216383 62057.9 886358 -841444 162188 -244629 14 11.2621 0.0202363
225 1 28.254 10.6781 0.0124892 -4.3841 -383200 -215317 -129302 149328 757437 -168413 14 10.9781 0.0430059
226 1 30.1352 12.4547 0.0447445 -4.43278 528115 390100 391127 -99386.8 75681 447607 14 11.236 0.00340605
227 1 30.069 10.6401 1.87796 -4.38895 -458985 -1.11957e+06 -614111 342069 10148.9 -403196 14 10.7051 0.0746729
228 1 28.3333 12.3252 1.78515 -4.42164 -8123.02 141292 295903 -34231.9 157621 -191501 12 11.1002 0.0310144
229 1 31.7831 10.588 0.0836829 -4.42235 241504 -189059 -560505 -306793 -248579 430381 15 10.9146 0.0281278
230 1 33.5196 12.3519 0.0704402 -4.40522 -705499 -142591 -855651 -20602 1042.23 -368990 13 10.726 0.0563443
231 1 33.5366 10.5983 1.77849 -4.44121 112560 283423 404028 -86828.7 -120556 612878 14 11.1234 0.0250658
232 1 31.8408 12.3892 1.82073 -4.42449 -249192 208904 -40218.3 -428077 215876 311308 15 11.0025 0.035447
233 1 35.2047 10.6044 56.4008 -4.37594 175188 -296621 -333497 164331 -290986 -242916 14 11.0512 0.023076
234 1 37.0752 12.3967 0.0770528 -4.42847 345848 911484 503622 266293 478805 -205298 13 11.353 0.0420372
235 1 36.9955 10.5925 1.83863 -4.41345 1.25236e+06 438473 1.21692e+06 -190670 205387 254292 15 11.6522 0.00626144
236 1 35.3283 12.385 1.70927 -4.41426 -405269 327068 25830.7 292348 -147655 312463 14 11.007 0.0260736
237 1 38.8444 10.6423 0.0491411 -4.42075 669519 269401 440809 818377 -169664 106714 12 11.2856 0.0205723
238 1 40.7472 12.4741 0.0471548 -4.40931 361570 281106 -229918 -259292 -100226 -10730.6 15 11.1273 0.0194693
239 1 40.6031 10.679 1.80706 -4.4181 44253.5 -413904 601239 -79122.9 2728.95 -227192 15 11.0976 0.0913636
240 1 38.9109 12.4019 1.8042 -4.43198 285108 -313577 397873 541980 -303661 -3779.29 15 11.1405 0.164331
241 1 42.4121 10.4516 56.4271 -4.39309 -206578 -192566 952302 -302648 -332737 -135896 15 11.2061 0.0371021
242 1 44.1373 12.2394 56.4969 -4.44145 451605 503871 263622 235644 432227 -196566 15 11.2674 0.0879813
243 1 44.0941 10.4565 1.86505 -4.43971 450485 250307 582697 278427 296807 171376 15 11.2806 0.112565
244 1 42.4243 12.2758 1.79563 -4.42116 -183662 955180 582028 -84556.1 67290 195691 12 11.2762 0.0260776
245 1 45.8188 10.5187 0.0301685 -4.42016 -355097 -385167 107595 -167569 -423232 -239.23 15 10.8888 0.0159193
246 1 47.608 12.2146 56.4211 -4.39425 94276.6 -593555 -522235 -7240.35 70917.6 -286389 15 10.882 0.0221146
247 1 47.6317 10.5281 1.62661 -4.34228 -977990 -931468 323569 -141784 292799 88802.3 13 10.899 0.0100304
248 1 45.9794 12.2001 1.88157 -4.39625 -20472.2 -242495 -193768 361657 146184 410693 15 11.0134 0.00768916
249 1 49.5251 10.5505 0.0782508 -4.39963 -734447 -316102 -101922 -166854 82911 166345 13 10.8164 0.0140439
250 1 51.1685 12.3489 0.0176966 -4.41228 277524 -297240 -237036 -503526 -419788 -15580.4 13 10.9962 0.0481396
251 1 51.28 10.5395 1.72436 -4.44215 343738 958813 566920 -137648 -311779 75499.2 16 11.3998 0.0814614
252 1 49.3492 12.2992 1.81934 -4.43917 724527 -134738 530919 -186327 306081 317473 15 11.2308 0.0491597
253 1 52.9876 10.5085 56.4498 -4.44138 -78453.4 425768 132588 10488.2 -203156 153326 15 11.0893 0.0826332
254 1 54.7279 12.311 56.4693 -4.42659 464499 391503 -114616 -165337 81988.3 202128 14 11.167 0.0825236
255 1 54.7171 10.5274 1.71879 -4.40673 210479 536111 91101.1 36463.6 -661706 -253250 13 11.2278 0.0369623
256 1 53.0269 12.2826 1.82572 -4.42958 37893.1 617025 920190 -255616 115322 -107607 13 11.2808 0.014111
257 1 0.00597361 14.1071 0.176103 -4.37934 -280107 -185953 -362291 -255211 471272 462188 15 10.9318 0.00249908
258 1 1.79282 15.7636 0.0765504 -4.40742 -565340 235418 64595.9 131286 -741041 47613.6 14 10.9804 0.0169241
259 1 1.75422 14.1157 1.93223 -4.34782 -404473 -1.29797e+06 -1.34151e+06 -580351 82255.8 512856 13 10.6159 0.064962
260 1 56.4891 15.8908 1.82442 -4.4351 868790 -490999 -12492.5 312268 59358.3 -55378.7 14 11.1055 0.0942695
261 1 3.49401 14.0931 0.0490926 -4.40618 -280066 -751275 680840 -130634 -323309 2700.78 13 10.9774 0.0222919
262 1 5.19956 15.8793 0.0158244 -4.4363 562621 78313.3 319983 382354 42005.1 -289779 14 11.1433 0.0113619
263 1 5.26269 14.0911 1.79593 -4.42303 -220461 29320 234770 -34248 307606 -334198 14 11.0079 0.0304114
264 1 3.46104 15.8248 1.81317 -4.40333 -516388 -181599 -737873 -215737 -71688.5 -294899 13 10.7483 0.0217255
265 1 7.00715 14.1235 56.5137 -4.42282 569181 -333427 -285186 -132364 -199165 -55898.6 12 11.0198 0.0901508
266 1 8.81457 15.8364 56.4923 -4.42722 -64720.7 563733 324820 379559 -231554 -175360 12 11.1579 0.0537217
267 1 8.73912 14.044 1.79386 -4.41201 782996 -289522 237587 24960.2 55849.3 -331015 14 11.1873 0.0364331
268 1 7.08048 15.8904 1.72378 -4.4249 95823.5 214731 -41940.3 307938 295901 -292948 14 11.0772 0.0808546
269 1 10.5448 14.1026 56.5018 -4.43625 985269 539232 862113 362805 119810 -321720 14 11.4686 0.0546239
270 1 12.3992 15.8927 56.4644 -4.42297 188447 596669 428473 74538.1 -353510 -516457 14 11.2463 0.0113908
271 1 12.3431 14.0934 1.93003 -4.36096 -28426.3 495163 38033.4 -222922 124246 -96667.2 13 11.2862 0.014551
272 1 10.5726 15.9065 1.72774 -4.43104 821287 806471 982521 459463 200727 -203455 14 11.5123 0.0101354
273 1 14.2332 14.1371 56.4795 -4.38855 -37620.5 44575.2 -81528.9 -144272 -386324 -602237 13 11.0852 0.00677476
274 1 15.9509 15.8806 0.0835559 -4.40943 -70077.8 32601.4 135805 98434.9 150908 -493998 14 11.0894 0.061011
275 1 15.9373 13.9472 1.67604 -4.37688 -99999.8 258445 -501311 362786 82448 -95907.5 13 11.0433 0.0193476
276 1 14.0998 15.7786 1.7115 -4.41252 -192158 31338.2 -242806 -444688 -90498.9 -705007 14 10.9525 0.0334418
277 1 17.6434 14.1016 0.058171 -4.42738 -341917 233196 54430.3 283175 922535 193928 14 10.991 0.0252537
278 1 19.4387 15.8853 56.3971 -4.41736 -159325 -103013 216330 -302110 223491 -424710 14 11.0283 0.0334469
279 1 19.4473 14.1237 1.80739 -4.42606 -285494 423867 -118110 70746.8 630892 -369682 14 10.982 0.00365173