ITEM: TIMESTEP
4000
ITEM: NUMBER OF ATOMS
16378
ITEM: BOX BOUNDS pp pp pp
-3.1943035103687123e-02 5.6543943035103950e+01
-3.1943035103687123e-02 5.6543943035103950e+01
-3.1943035103687123e-02 5.6543943035103950e+01
ITEM: ATOMS id type x y z c_peatom c_satom[1] c_satom[2] c_satom[3] c_satom[4] c_satom[5] c_satom[6] c_coord c_voro[1]
1 1 56.362 56.4667 56.4465 -4.40662 -244332 -430550 28890.5 -18248.1 -723222 297096 15 10.9457
2 1 1.6446 1.66611 0.055963 -4.38084 -413035 21409.9 -803190 627565 -472527 650400 15 10.895
3 1 1.60946 -0.0112182 1.66463 -4.36838 -258868 -1.41916e+06 -298229 115481 249797 311450 15 10.7361
4 1 56.475 1.64161 1.71155 -4.40936 -870288 -362275 -105614 147306 447297 500648 15 10.8058
5 1 3.43328 -0.00385538 56.5102 -4.38483 -980901 -877828 194250 -56890.2 -81733.2 -109651 14 10.7815
6 1 5.2486 1.75469 -0.0125912 -4.42884 -159905 -33621.8 250994 399126 13643 -814685 14 11.0006
7 1 5.27928 -0.0352971 1.77385 -4.44111 1.06051e+06 642545 439038 112447 40126.8 -744024 15 11.3958
8 1 3.40272 1.7167 1.66259 -4.42516 -22787.2 266217 -240881 -184036 -242598 -7948.88 15 11.0028
9 1 7.04556 0.103465 56.4988 -4.43596 322640 48814.6 206097 36437.8 -48228.4 -83596.2 13 11.0794
10 1 8.83033 1.79767 56.4874 -4.41349 -413732 -511494 468431 -654554 253206 -66535.3 13 10.9311
11 1 8.93488 0.0563523 1.63066 -4.41889 59344.7 -49941.4 -209464 -466824 -86256.7 -373461 15 11.0103
12 1 7.08249 1.78211 1.71183 -4.4161 -158479 -447267 -234154 273098 -215198 -4790.28 15 10.8819
13 1 10.6061 -0.00532927 56.4726 -4.43258 -417058 491118 227060 -204429 459010 -73186.2 16 11.0252
14 1 12.3487 1.71833 -0.0163599 -4.40947 -154349 -97186.7 365031 263488 276766 15654.6 14 11.0786
15 1 12.3341 0.0907215 1.78031 -4.4215 70559.2 -454437 -67908.6 -30607.2 284023 -110335 15 10.9296
16 1 10.6102 1.78688 1.74348 -4.4113 -755765 -650449 202732 -340607 412684 -87956.1 14 10.7902
17 1 14.0286 0.0546337 0.0115039 -4.39394 -305788 -474288 139910 274278 -45313.4 249108 13 10.9519
18 1 15.8337 1.73286 0.0640214 -4.39471 -119262 -193089 -18903.4 -440256 -377334 395722 15 11.0683
19 1 15.757 0.0617529 1.69851 -4.37036 -703477 -686657 -1.28649e+06 -802729 -662880 698644 15 10.6648
20 1 14.0132 1.83826 1.83011 -4.39629 -411220 -546379 -471863 27196.5 501209 -523849 14 10.8017
21 1 17.6254 0.0289204 56.522 -4.43922 -73634.6 -392577 169444 -161529 -282932 87983.6 15 10.8949
22 1 19.3653 1.71124 56.5486 -4.42255 381954 -6256.18 -68819.2 -74340 49901.4 427941 13 11.0523
23 1 19.3906 0.0626533 1.74953 -4.42757 175765 364515 733180 -148390 334626 337122 13 11.2659
24 1 17.5471 1.76536 1.71216 -4.39449 -832364 -404301 -513100 369193 -168718 564224 13 10.779
25 1 21.1636 56.5438 56.5004 -4.40948 23491.4 66936.9 226642 558114 -50619.1 592981 13 11.149
26 1 22.9022 1.73377 0.0598377 -4.40246 303719 45243.9 164125 -2719.99 172927 -35544.6 14 11.1897
27 1 22.9915 0.124095 1.80876 -4.38463 474030 -579797 -189075 -292426 -133606 -90131.2 13 11.0164
28 1 21.1446 1.79922 1.74656 -4.42195 -234030 155503 435045 103982 278755 34688.8 14 11.114
29 1 24.8335 56.5479 56.5289 -4.44414 896705 328422 844951 -534773 140222 296014 14 11.3701
30 1 26.5225 1.75579 56.5019 -4.398 -696775 647442 164394 218977 35144.2 36379.2 14 11.0804
31 1 26.5184 0.0569333 1.81969 -4.42887 263546 674384 99371.3 335698 356650 -20749.5 13 11.1924
32 1 24.749 1.79457 1.73208 -4.433 -234265 -381639 565815 20444.1 178367 101535 14 11.0178
33 1 28.1863 0.0432304 0.0366555 -4.43101 -140727 39450.9 264763 362979 252693 362597 15 11.0151
34 1 29.926 1.87092 -0.0280015 -4.427 107288 204444 -26039.4 55279.3 10940.4 -149514 14 11.0856
35 1 30.0196 0.0152496 1.78523 -4.42295 -23122.5 301468 -208932 -508475 492815 -406428 13 11.0128
36 1 28.2464 1.947 1.71192 -4.411 55844.3 531416 -92198.4 -151392 350210 -486621 14 11.1531
37 1 31.6829 56.4834 -0.0363894 -4.39657 229933 -284190 -778791 -156532 -34910.8 -35445.7 15 10.9395
38 1 33.4351 1.72881 -0.0343043 -4.37689 -173831 275990 -1.06319e+06 202954 -803460 146172 14 10.9308
39 1 33.5522 0.0551877 1.72542 -4.42249 15186.2 -640973 436902 -305638 -190266 567467 14 10.9794
40 1 31.7482 1.71012 1.76138 -4.42679 -292534 -87405.4 269377 306856 831214 92475.3 14 11.033
41 1 35.3547 56.5215 56.505 -4.42048 120623 -276569 -337986 -178189 79474.4 363253 14 10.9126
42 1 37.1258 1.69973 0.0380593 -4.42748 53415.5 1.07028e+06 501558 169438 -298739 402301 13 11.322
43 1 37.0452 56.5041 1.77887 -4.42327 33377.6 -195200 59790.2 -465110 23917.3 281492 14 10.9506
44 1 35.2583 1.72967 1.68135 -4.41764 -115441 193506 60335.6 -262481 -323639 241493 14 11.0637
45 1 38.8593 56.5229 56.543 -4.42017 108595 -681252 -101211 99668.9 54016 -288556 13 10.8667
46 1 40.6382 1.62525 0.105796 -4.40379 -518923 -618398 59797.7 -122271 169882 -48392.4 14 10.9254
47 1 40.6354 56.5296 1.8235 -4.41374 -9719.87 443406 158126 -582.591 256133 251809 13 11.1555
48 1 38.8065 1.62148 1.74684 -4.3988 -562363 346101 -264823 -166491 -250312 152663 14 10.9906
49 1 42.3559 -0.0201482 0.0485365 -4.42714 -281692 180642 491992 668926 -68314 -113913 15 11.0873
50 1 44.1876 1.7117 56.5283 -4.43855 413960 689824 550089 318699 -39177.6 527779 14 11.2893
51 1 44.2228 0.0232737 1.69284 -4.37651 -53909.7 -424506 -527309 537198 -610534 474733 12 10.9072
52 1 42.5418 1.70588 1.81247 -4.39844 372907 209832 7184.45 387171 -436743 -289792 14 11.1832
53 1 46.0042 0.0329308 56.5171 -4.41687 161315 -125723 -139891 13359.2 201695 -562113 14 10.9747
54 1 47.7795 1.71341 56.5347 -4.43659 77732.1 -231723 429262 -155566 -44029.9 57487.9 13 11.0265
55 1 47.7513 56.5259 1.67211 -4.44639 412823 -52014.7 -15352.4 -18496 -586625 -45738.4 15 11.0057
56 1 46.0201 1.74357 1.69987 -4.41594 1873.2 -148406 -401890 -524114 -532144 33565.9 15 10.9782
57 1 49.5412 -0.00756908 56.4405 -4.4252 -127395 830353 229996 116654 -168244 -293475 13 11.1928
58 1 51.4084 1.75776 56.5347 -4.40119 634639 -546118 -88771 -459205 -9667.99 320367 14 11.1665
59 1 51.3057 56.4542 1.61242 -4.41793 -102051 164883 6391.25 -157220 488534 -247086 15 11.045
60 1 49.4855 1.80542 1.74113 -4.41533 -69000.8 423044 4741.24 2047.14 -364940 369373 14 11.1236
61 1 53.0504 56.4253 -0.00839612 -4.40291 -859597 320161 -244851 622897 799410 345489 14 10.8947
62 1 54.7963 1.7402 56.5169 -4.42405 -125160 -246286 -356994 423905 -458545 374848 15 10.8798
63 1 54.7186 -0.00630297 1.82886 -4.42051 -13506 -320338 118845 -115484 64729 165565 15 10.9577
64 1 53.0322 1.75065 1.77021 -4.42489 -507252 223145 308991 468343 -216029 -82141.7 14 10.9785
65 1 56.5507 3.47346 0.0800481 -4.41093 -803483 -320562 208140 -7488.53 -125019 215079 15 10.913
66 1 1.6361 5.22752 56.5319 -4.39676 -454693 -349640 -248489 183422 -168016 -350933 13 10.8669
67 1 1.65503 3.4841 1.80488 -4.4176 -804395 -161902 -36653.8 19710 -413709 -220500 16 10.8122
68 1 0.0392387 5.2792 1.82912 -4.4091 -168749 32562.2 -273354 -95450 554095 106892 14 10.9715
69 1 3.51788 3.46106 0.00988427 -4.41418 894785 -277720 21072.8 274392 -276082 -383377 14 11.1693
70 1 5.29581 5.20458 56.4387 -4.38106 -207503 -475749 274514 -320416 -452599 -366227 14 11.0451
71 1 5.29144 3.37575 1.78632 -4.41556 -144841 -138200 323115 82839.4 33576.8 -236308 14 11.026
72 1 3.43051 5.08517 1.7289 -4.41467 441450 -423244 -258957 32922.1 232450 -413142 15 11.0683
73 1 7.03464 3.46501 0.00448378 -4.41195 437530 -303426 281385 236177 -144404 -255636 14 11.1371
74 1 8.83514 5.21994 56.5209 -4.43087 606958 205935 200485 173807 -40655.4 -129312 14 11.2188
75 1 8.81142 3.50052 1.75374 -4.42542 -164151 -312709 -461270 -212139 81336.2 324464 14 10.8066
76 1 6.93802 5.17002 1.69489 -4.41556 517731 12334.7 -93606.5 12872.3 -41862.6 -345369 13 11.1216
77 1 10.4745 3.47263 56.5032 -4.41126 -353111 -374965 -65778.8 -260256 -26042.7 -311358 15 10.9333
78 1 12.2614 5.31766 56.5014 -4.36058 -293375 -831451 -1.60075e+06 632362 -579472 -1.05572e+06 14 10.6428
79 1 12.2709 3.5224 1.67344 -4.40877 -717468 -283323 506393 423060 639610 -43937.4 15 10.9544
80 1 10.599 5.22366 1.71083 -4.41067 -244636 -522380 -153035 222149 -278158 -452050 16 10.8799
81 1 14.0266 3.58141 -0.0265622 -4.43399 523113 465520 298756 -59064 51763.5 -413563 12 11.2566
82 1 15.9351 5.25453 56.409 -4.39324 77694.6 -48667.1 300457 33952.3 132713 -393658 14 11.1517
83 1 15.9087 3.51907 1.75942 -4.42369 -82013.4 354728 296156 -38579.9 -173557 -488217 15 11.1923
84 1 14.0318 5.36601 1.60397 -4.41609 541452 377432 590577 95401 -186724 -457231 15 11.3843
85 1 17.5525 3.47666 56.4803 -4.40662 -49889 156812 437533 368960 369270 1761.21 14 11.1893
86 1 19.369 5.32144 56.4981 -4.41438 1.3541e+06 162745 722529 549718 -50225.6 -350702 14 11.4975
87 1 19.4139 3.48925 1.72935 -4.4305 807598 377902 701281 268696 -245026 218729 14 11.3645
88 1 17.6142 5.29514 1.87531 -4.30621 -114714 -856736 -963255 85940 -73333.2 -332815 13 10.9545
89 1 21.2906 3.5498 0.020165 -4.398 310718 -2242.61 32453.5 43751.9 -453465 39296.9 13 11.1278
90 1 22.9941 5.26341 56.5089 -4.40777 -566225 -374196 -252468 224373 -18246.4 500055 12 10.9139
91 1 22.971 3.47532 1.72568 -4.39571 -386637 -263671 -835593 3077.19 -181949 -445155 14 10.7744
92 1 21.1718 5.29648 1.7111 -4.44094 1.157e+06 689306 791032 95021.7 -279439 -21600.9 14 11.4805
93 1 24.6443 3.54843 0.00850776 -4.38739 244864 -589656 -213046 329129 47867.7 -578185 13 11.0336
94 1 26.5011 5.29679 56.4087 -4.37715 -72525.5 391329 -348534 270422 -592021 529819 13 11.1192
95 1 26.4345 3.60264 1.69008 -4.4082 -100518 20715.1 791623 513111 21630.7 -331823 13 11.1673
96 1 24.7183 5.25902 1.69647 -4.40079 -354836 -553442 146893 906821 -470695 -717833 14 10.9425
97 1 28.2816 3.62874 56.4944 -4.40453 379960 -796597 34538.1 653476 336952 252427 14 10.9707
98 1 30.1473 5.28381 -0.0301407 -4.40717 -124732 -434368 -80830.6 22701.7 315007 -230926 14 10.9212
99 1 30.1341 3.49757 1.8146 -4.40221 -239179 -301353 -119343 -290435 93126.7 -2624.32 15 10.9404
100 1 28.2732 5.34108 1.64884 -4.42872 938593 396561 583637 -316580 309922 -263504 14 11.3937
101 1 31.7951 3.5544 0.0205844 -4.41067 -584201 -267436 150257 425557 -23065.3 -210502 12 10.8566
102 1 33.4997 5.31293 0.104278 -4.43019 346063 142529 494571 -65383.2 483556 302568 14 11.2187
103 1 33.5442 3.52296 1.72988 -4.43141 402523 296683 72638.3 456599 -386497 85713 14 11.2046
104 1 31.8077 5.29348 1.84106 -4.40321 -619722 180852 13551 392739 -201672 -18049 13 10.9812
105 1 35.3372 3.53106 -0.000732101 -4.43538 803406 338352 273456 -172489 17867.2 462745 14 11.2574
106 1 37.1283 5.20694 -0.00608354 -4.39552 -39047 495334 -103348 194841 557487 96029 12 11.1353
107 1 37.1296 3.55532 1.80635 -4.40609 505347 -128552 -231981 378914 -79407 718298 14 11.0589
108 1 35.4996 5.35912 1.70378 -4.36842 -310430 -244691 -546158 148258 27521.1 196835 14 10.9078
109 1 38.9152 3.56298 0.033469 -4.39527 -143330 131272 28809.8 -91899.2 -340331 89555.3 13 11.064
110 1 40.6431 5.22951 56.5038 -4.41726 412044 85012.4 7958.85 -491772 -133192 -67655.1 14 11.1346
111 1 40.5877 3.45591 1.73485 -4.42613 92944.6 567908 -367190 -322930 -793425 -76433.6 15 11.0617
112 1 38.9149 5.35692 1.73269 -4.38749 -4587.43 -567001 52141 -1.00538e+06 -42512.1 -975944 14 11.0116
113 1 42.3658 3.41292 56.5166 -4.41527 427449 779552 142691 343099 -269784 -601234 14 11.3841
114 1 44.2734 5.26053 56.5326 -4.3953 315800 331595 -83971.1 147874 -164260 860751 13 11.2346
115 1 44.1823 3.61615 1.73111 -4.40418 99538 285938 746804 69922.8 -399344 349125 14 11.3168
116 1 42.3708 5.15552 1.81519 -4.3749 -522060 27455.5 33791.9 524002 -119935 428134 14 11.0448
117 1 46.018 3.49834 -0.0364827 -4.44086 355128 -156111 185612 46285.2 -27440 225681 16 11.0593
118 1 47.7496 5.24079 56.5294 -4.40898 -413436 -335681 -478395 192828 54712.2 -355338 13 10.7836
119 1 47.737 3.5087 1.69913 -4.4174 -707839 -353475 -390352 18739.9 49187.6 635213 15 10.7227
120 1 45.9903 5.27855 1.6467 -4.37994 -457162 -263804 22722 -822257 -637299 242730 14 11.0212
121 1 49.4512 3.55963 56.5412 -4.41154 -372354 465019 -8095.58 112189 376086 176044 14 11.093
122 1 51.3186 5.27042 0.00513979 -4.41222 48333.3 103080 -281682 -80571.4 -145995 -615272 13 11.0124
123 1 51.3276 3.48059 1.75865 -4.43804 685892 128701 502853 -18929.8 -116702 200630 15 11.2747
124 1 49.4356 5.31589 1.80824 -4.41687 9050.06 -281997 416249 -26788.9 -401755 -238089 15 11.0799
125 1 53.0665 3.49206 56.4724 -4.38379 -963131 -786798 -336824 -352174 -152897 157059 14 10.6672
126 1 54.8118 5.20187 -0.00484758 -4.42619 -304804 543505 231362 -336977 646728 386904 17 11.1225
127 1 54.7788 3.49392 1.73405 -4.42034 200493 -469415 -625181 153795 425528 -184614 14 10.8491
128 1 53.0969 5.28644 1.64043 -4.3708 -1.01563e+06 43507.1 59487.4 -310691 -556712 -219975 13 10.9694
129 1 0.00492383 6.94622 0.0667373 -4.39477 353760 -442122 284737 218791 -46278.2 -485654 14 11.1267
130 1 1.73465 8.75529 0.0419407 -4.43078 104317 412716 451228 114687 502672 -287748 13 11.1608
131 1 1.8123 6.95376 1.75287 -4.42836 -363097 159262 -139474 -205337 -283052 64399.3 14 10.9309
132 1 56.5124 8.72157 1.6814 -4.40961 -81820.2 167579 -530825 91229.5 79889.3 -80686.8 14 10.9478
133 1 3.53226 6.96992 -0.00780091 -4.4539 439621 578067 -232075 256899 137518 -174495 15 11.082
134 1 5.37122 8.78409 56.5418 -4.38745 -749608 -233474 -754386 528027 -111067 -100935 14 10.8124
135 1 5.2045 7.0181 1.79075 -4.37004 -1.0017e+06 -163159 -568325 1.07087e+06 167846 469215 14 10.8227
136 1 3.61525 8.70441 1.7757 -4.39784 -248693 -480309 204872 461812 -180660 -270612 15 10.9802
137 1 6.86317 6.97855 0.00523038 -4.39455 -153539 -358940 507627 192542 81498.6 52738 14 11.0921
138 1 8.72165 8.83811 56.5085 -4.42274 661615 66738.2 -369988 543946 -769518 -278355 15 11.0841
139 1 8.80847 7.01527 1.60478 -4.43128 404509 838334 279674 -102093 -87062.3 -196098 14 11.3102
140 1 6.98375 8.82878 1.77376 -4.42148 -688058 228704 -410584 94504.4 -283990 200899 15 10.8671
141 1 10.5609 7.06243 56.4933 -4.38647 -741767 -311132 -906408 135314 -67086.2 -733188 13 10.6808
142 1 12.3369 8.81333 56.4786 -4.40971 69932.7 -1.18648e+06 -929685 -536.435 19279.1 -261176 15 10.6744
143 1 12.2993 7.03535 1.56388 -4.40144 -258771 -603046 -783868 43246.5 -227863 -175643 15 10.7714
144 1 10.4696 8.85265 1.6045 -4.43912 182092 266356 378959 -194806 -199150 -203814 15 11.1258
145 1 14.113 7.11245 56.4574 -4.43527 131710 200472 -407502 64524.1 320601 -7813.04 14 10.9659
146 1 15.8826 8.89201 56.5112 -4.43308 -62309.4 274488 661413 -273642 161135 -332243 14 11.156
147 1 15.8777 7.0077 1.69425 -4.42564 -46041.8 242823 530124 322911 -209890 111670 13 11.1387
148 1 14.1155 8.70925 1.7325 -4.42249 118216 -223021 306083 536622 114088 -324062 13 11.0264
149 1 17.6388 7.00039 -0.0398761 -4.42329 -261860 410020 472423 19237.4 162005 -159701 12 11.1092
150 1 19.3749 8.8532 56.4883 -4.42093 272347 438095 -19882.5 173184 458096 1909.16 14 11.1539
151 1 19.4179 7.09375 1.66535 -4.42474 586277 591639 643981 402278 -322916 -316146 13 11.3446
152 1 17.665 8.80653 1.70377 -4.41583 -214930 509450 -29156.3 212443 -19469.6 -221603 12 11.0603
153 1 21.3125 7.09358 -0.0234691 -4.40424 148393 63686.8 234964 -456355 585863 33953.4 14 11.1562
154 1 22.909 8.82547 56.4972 -4.39809 -327563 -118926 677148 -148546 319457 -276922 13 11.1214
155 1 23.0729 7.03633 1.75863 -4.39749 -133889 630414 20495.4 103165 -351515 -92673.3 14 11.1673
156 1 21.2425 8.89514 1.66686 -4.4255 609287 586362 341038 -680525 137787 -271980 15 11.3294
157 1 24.6743 7.17774 -0.0143454 -4.4256 186030 552709 -57753.3 162349 142781 -19713 15 11.1477
158 1 26.4989 8.92553 0.012183 -4.4343 202382 507641 -161528 -156143 495323 113903 15 11.1438
159 1 26.5014 7.11593 1.76021 -4.43456 438093 583367 366370 308683 -8587.72 502890 14 11.2719
160 1 24.7178 8.88273 1.81581 -4.43004 348999 313366 238488 -39130.6 72448.1 -350281 15 11.1463
161 1 28.3278 7.1125 0.00805268 -4.42231 504508 483664 141002 -375018 -108944 674951 15 11.2287
162 1 29.9695 8.89932 0.0329939 -4.41584 -169931 -240540 -198523 -248063 207274 -319773 15 10.8959
163 1 30.1162 6.9973 1.71336 -4.4079 -125229 311394 325824 -15787.4 291431 -481603 13 11.1741
164 1 28.2677 8.95742 1.76258 -4.41297 262774 339822 -247661 -297730 144191 -341093 14 11.0789
165 1 31.8069 7.05888 0.00119389 -4.38132 -372727 -378494 -756576 -57085.5 64837.1 81334.5 14 10.824
166 1 33.6243 8.90234 56.529 -4.39794 -628107 107458 -978711 122921 -33993 -635139 14 10.7639
167 1 33.6796 7.11956 1.8133 -4.42089 731504 -52687.5 -283062 118765 46979.1 -242610 14 11.112
168 1 31.8458 8.81139 1.64718 -4.43799 123274 227579 415308 -316676 -68911.1 -163287 13 11.1383
169 1 35.2974 7.06131 56.526 -4.4182 188879 361002 -411559 17808.8 -455487 333894 13 11.0249
170 1 37.0538 8.92237 0.0634462 -4.35977 -1.12004e+06 -362121 -947812 211215 172631 783457 14 10.7274
171 1 37.0764 7.15584 1.60843 -4.38253 -105889 -708453 223450 -521882 -79291.6 598296 14 11.0219
172 1 35.3921 8.94239 1.70695 -4.39421 -562974 181786 367048 391154 677907 -217566 14 11.1355
173 1 38.8651 7.19423 -0.0306406 -4.34962 -847124 46498.6 85962.1 -1.0898e+06 327332 402737 15 11.0681
174 1 40.6116 8.64209 56.4729 -4.36598 -573207 -713975 616283 -1.12754e+06 2801.34 246271 15 11.0281
175 1 40.6347 6.90596 1.7251 -4.39616 -469871 -147248 13046.2 -764456 308112 34939.9 15 10.9923
176 1 38.8583 8.87174 1.75689 -4.41684 109254 -279265 -509944 -822211 -175240 -3352.31 14 10.9141
177 1 42.461 7.02254 0.041579 -4.42228 -122429 356835 301424 -157494 -159083 -282714 14 11.1506
178 1 44.0843 8.81442 56.5292 -4.40341 -596464 -391427 -301506 1773.81 46268.6 -21063.5 13 10.7627
179 1 44.0984 7.08353 1.79438 -4.40579 -255481 372997 -79650.6 282700 -213558 2408.63 15 11.0861
180 1 42.4404 8.79536 1.75712 -4.39787 -82096.2 -738939 -596121 659337 137055 144306 14 10.7938
181 1 45.9609 7.09052 -0.0219938 -4.44097 395303 16931.2 75888.2 -412612 -585093 208446 13 11.1227
182 1 47.7993 8.76189 -0.0297082 -4.41266 270885 118567 871558 -248363 -48500.6 51703.3 13 11.273
183 1 47.6998 6.92355 1.71489 -4.3809 -314637 -365738 -44485.8 -184252 -330365 193572 13 10.9861
184 1 45.8481 8.83273 1.76698 -4.41776 701410 -206298 -34508.4 -11381.9 158640 -7853.27 14 11.1307
185 1 49.5203 7.05021 56.505 -4.43722 484364 -17988.4 427512 120435 -188330 -147919 15 11.1341
186 1 51.2555 8.77507 0.0261277 -4.42156 386795 449679 967111 373918 -25821.1 159951 15 11.4027
187 1 51.2221 6.96823 1.75141 -4.43891 217138 302356 19542.6 -176393 -237871 -197998 15 11.0713
188 1 49.455 8.75574 1.80056 -4.42104 -399013 515953 -321831 -92405 -90245.5 450696 14 10.9832
189 1 52.9626 7.1183 56.4642 -4.41366 477423 -92213.1 499025 151214 123684 -3335.77 13 11.1926
190 1 54.7853 8.87043 56.5303 -4.4261 330946 470930 395748 52720.8 -130288 242641 14 11.2522
191 1 54.6361 7.07737 1.76131 -4.37637 74607.4 -759436 -2273.6 -795256 215313 -327886 14 11.0262
192 1 52.9374 8.85627 1.80045 -4.39364 -623139 -305835 -702360 648934 -416416 97482.7 15 10.7848
193 1 0.0689087 10.5604 56.5228 -4.42237 832899 395660 302436 -102097 -100709 -217961 13 11.3344
194 1 1.88148 12.372 0.0675831 -4.36031 -486938 -400046 -195937 -554764 88666.2 294494 14 10.966
195 1 1.7448 10.5909 1.76776 -4.40514 402558 555371 -367969 -329770 226962 883104 15 11.1657
196 1 -0.0337549 12.4274 1.73145 -4.4293 484290 183612 557202 -553477 347032 -138320 13 11.2434
197 1 3.49473 10.5743 0.000890814 -4.41476 76835.4 -214572 212416 -163297 83498.7 -877864 15 11.0578
198 1 5.19835 12.271 56.5239 -4.42337 -153219 -366618 106267 -306715 -23524.3 53505.5 14 10.9365
199 1 5.2952 10.5392 1.67257 -4.42323 -314733 -659635 -80987.7 168991 18007.7 163822 13 10.7783
200 1 3.53741 12.2924 1.77485 -4.40933 -465093 -167979 -484927 -532026 -711520 -53559.4 14 10.8918
201 1 7.028 10.6092 56.4965 -4.41728 -778955 -402112 52761.8 -228300 -32332 -316944 14 10.7786
202 1 8.72236 12.3165 56.5158 -4.43694 704792 291740 847340 -252192 78646.3 -164035 14 11.3329
203 1 8.70667 10.5631 1.69081 -4.42787 -1327.25 -132662 108034 -89205.4 -434335 173499 14 10.9979
204 1 6.93894 12.3488 1.7083 -4.418 474325 -114397 -292503 -121341 36830.6 395438 13 11.0233
205 1 10.6244 10.6481 56.4851 -4.40741 294314 -272473 -623703 -121668 -33460.7 -601763 14 10.995
206 1 12.3794 12.3091 -0.00761147 -4.41135 -312908 165196 -83749 -100991 -148637 -460012 14 11.0071
207 1 12.4029 10.4097 1.66725 -4.38963 -401550 182273 -467004 363054 -391193 -141341 15 10.9419
208 1 10.6292 12.1736 1.70897 -4.37834 964224 -155331 -680144 -325023 305504 34426 14 11.1391
209 1 14.105 10.5725 56.5336 -4.43119 -207920 -55098 16233.1 320339 341373 -434113 14 10.9278
210 1 15.9121 12.3287 0.0352797 -4.42784 349748 483428 612024 215205 208499 -231380 13 11.3027
211 1 15.847 10.5883 1.8079 -4.44001 1.00402e+06 481914 251494 173641 -177940 94654.8 16 11.3162
212 1 14.0956 12.3719 1.67152 -4.39864 -266378 297651 189963 604906 234555 117991 15 11.1091
213 1 17.6092 10.5558 56.4624 -4.39942 264243 284679 973786 153373 276695 -20192.1 13 11.3886
214 1 19.4399 12.4606 56.5225 -4.42886 348173 330116 571151 436157 287446 45892.3 14 11.2449
215 1 19.3338 10.6734 1.7563 -4.44881 699375 546419 846563 -231418 -35928.3 183455 15 11.3982
216 1 17.6314 12.4711 1.82212 -4.36186 -800242 -223427 338696 790569 -39547.9 170728 13 11.0405
217 1 21.1838 10.675 56.4643 -4.3961 436097 -604402 -174918 -63770.1 -226039 671853 13 11.0268
218 1 22.9635 12.3398 0.037325 -4.4084 -726323 -307413 -440667 70787.6 -845993 183798 14 10.7689
219 1 22.8971 10.6181 1.74808 -4.39926 61549.3 -869876 -24780.1 -132614 -109004 -60754.9 13 10.8779
220 1 21.1673 12.3214 1.79633 -4.43214 -444095 35357.4 285809 448626 -104723 394522 15 10.9805
221 1 24.7187 10.6537 56.5289 -4.42633 166588 21520.9 647972 128625 -340507 -160015 13 11.181
222 1 26.4567 12.3247 56.4668 -4.42479 -374819 491351 -120902 -59204.6 -95452.1 429300 15 11.0246
223 1 26.4854 10.7195 1.7408 -4.40975 -162192 -290104 -432454 247335 -161017 -184221 13 10.8219
224 1 24.7254 12.3775 1.64847 -4.41193 -338864 -348806 -218909 244745 -293750 -270891 15 10.8545
225 1 28.2496 10.6584 56.5307 -4.42725 -43824.7 -690173 204742 34810.5 17248 168066 13 10.8659
226 1 30.0396 12.3468 0.0523954 -4.41281 -87525.1 66700.8 -85226.4 -297365 -399307 708199 14 11.0522
227 1 30.0611 10.6472 1.69303 -4.40575 532409 -259557 -347262 -386315 234622 -36432.2 13 11.0314
228 1 28.2132 12.4602 1.70829 -4.41684 -549549 -303117 348426 -245322 -134979 173084 15 10.9079
229 1 31.7967 10.6199 56.5158 -4.43318 408546 -15754.5 166258 262899 -68168.5 -153565 14 11.0711
230 1 33.6729 12.3613 0.0270112 -4.44051 463396 598741 534617 294278 -18037.1 -126995 15 11.2961
231 1 33.595 10.5558 1.70257 -4.42056 664803 1474.42 254599 216750 303768 -331071 13 11.1912
232 1 31.835 12.4522 1.70097 -4.42067 39698.3 482914 -246137 -559458 -391376 329463 14 11.0566
233 1 35.3833 10.6673 56.5244 -4.39046 -868039 -546420 -306399 481772 469466 -131187 14 10.7523
234 1 37.2158 12.3343 56.4911 -4.3166 -1.24159e+06 -866820 -1.44209e+06 -92823.6 774218 -887483 15 10.607
235 1 37.126 10.7347 1.81605 -4.40762 -163070 151611 -338942 -155697 862464 -539261 13 10.978
236 1 35.3681 12.4473 1.83597 -4.42222 56535.9 118925 420588 585365 -109354 23349.3 14 11.1192
237 1 38.8721 10.57 0.0177587 -4.43336 192257 -180422 -387081 183213 -229464 328501 16 10.9117
238 1 40.684 12.4429 56.4399 -4.40552 -290194 -287263 17291.4 183108 -523218 100738 16 10.9922
239 1 40.6318 10.498 1.70259 -4.40707 -954007 534662 32652.7 -593510 -216695 -137191 13 10.9871
240 1 38.9504 12.4106 1.69648 -4.42726 -181418 -439326 51738.8 -213948 25910.7 413548 15 10.8921
241 1 42.352 10.4744 56.4921 -4.37842 -544169 854166 -213886 534223 -502604 -180233 14 11.1514
242 1 44.1685 12.3692 0.0120396 -4.43112 281866 146168 249343 220975 -239204 -233983 15 11.1347
243 1 44.1747 10.5705 1.73919 -4.44244 -230587 -349845 462355 -64839.9 45759.1 71028.9 15 10.9692
244 1 42.3177 12.2637 1.75516 -4.42644 306762 -331807 424812 307777 173223 477328 14 11.085
245 1 45.9447 10.5161 -0.0234407 -4.44806 568705 220970 184203 -468735 -14719.4 -267111 14 11.1885
246 1 47.643 12.3117 0.0506563 -4.42186 -374313 241386 25673.3 -36858.6 -268258 233867 15 10.9899
247 1 47.6953 10.5615 1.83502 -4.41112 299626 -493221 -140966 217305 459459 -50360.4 14 10.9925
248 1 45.9354 12.2509 1.73201 -4.40862 -685264 359204 -317047 41945.8 467455 -160500 13 10.8945
249 1 49.4271 10.54 0.0168486 -4.41447 192491 174673 638898 -551040 -246776 -301722 14 11.2238
250 1 51.2885 12.1739 0.00959414 -4.412 -44933.6 -93099.4 269364 97116.9 427408 415604 15 11.0726
251 1 51.1924 10.5281 1.77236 -4.40636 99652.4 -1.09242e+06 -467733 355353 -222899 687663 14 10.7837
252 1 49.4579 12.318 1.62915 -4.39359 322871 185431 -91467.6 -135020 -169589 -188362 13 11.1603
253 1 53.0874 10.6131 0.06902 -4.41765 -430698 -78390 491846 535066 174872 247958 14 11.0492
254 1 54.7092 12.3983 56.517 -4.39588 -12840.5 2597.64 522300 -61472 -508430 -178079 15 11.1933
255 1 54.835 10.5948 1.802 -4.41365 84649.5 187734 -373817 22493.5 -383849 -195726 14 11.0149
256 1 52.9711 12.3086 1.91238 -4.36268 -21468.5 -783696 -645600 137544 389390 505888 14 10.8687
257 1 56.5324 14.1428 56.5339 -4.38263 348024 -337606 -455451 -615993 -185242 -762497 13 11.0134
258 1 1.72658 15.7529 -0.00959182 -4.41291 166822 -147092 104960 -79906.9 238274 -626509 14 11.0639
259 1 1.70208 14.0848 1.83039 -4.39834 -548492 -384284 -420117 -399092 499085 -252194 15 10.7992
260 1 56.4621 15.7211 1.6516 -4.36492 -71308.3 -123320 -217923 -306555 262098 -430742 14 11.1063
261 1 3.47694 14.0507 56.5365 -4.36392 -1.09519e+06 -954554 -494.213 -778425 -880934 -152070 14 10.7364
262 1 5.14942 15.8293 -0.007468 -4.40569 662236 -321828 -162716 -427536 93980.6 521751 14 11.0639
263 1 5.10666 14.1437 1.73963 -4.39819 -317363 237809 -194625 69712.7 439349 319965 14 11.0174
264 1 3.42339 15.8627 1.80986 -4.39105 -772399 -700423 -244672 52773.2 523131 -307155 14 10.7596
265 1 6.90946 14.0514 0.0569841 -4.42251 848779 504287 606511 124165 -69388.9 786482 16 11.4137
266 1 8.7981 15.8513 -0.0284622 -4.39896 410735 -428093 -163946 168872 -61557.3 588985 12 11.0092
267 1 8.80496 14.1302 1.70956 -4.42221 754122 890533 100405 -108909 43372.2 179026 13 11.3462
268 1 6.99641 15.9064 1.82159 -4.43923 846969 545493 603119 387819 -10434.4 359551 14 11.3523
269 1 10.5713 14.1047 0.0156791 -4.44646 655268 1.00416e+06 648145 344598 83706.9 -84424 14 11.4118
270 1 12.4722 15.8743 0.0028572 -4.40795 27767.1 -433813 -366818 -245305 -361269 -537404 15 10.923
271 1 12.3607 14.0159 1.73404 -4.40103 -77656.6 -233119 -310080 579539 436973 -146267 13 10.9324
272 1 10.6372 15.9018 1.78586 -4.38937 -523231 -680516 342734 -922493 -138174 238232 15 10.9095
273 1 14.2062 14.1642 0.00906679 -4.42837 405368 93067 590585 242717 -60114 218942 14 11.2309
274 1 15.9387 15.9032 -0.00632743 -4.447 614067 490421 1.15767e+06 -332484 -153966 33029 15 11.3899
275 1 15.9504 14.0595 1.81405 -4.38451 -394209 -397708 109788 797018 -47888.5 -427190 13 10.9356
276 1 14.1433 15.8675 1.79685 -4.43526 105318 365076 -189749 70027.6 -237348 -226278 13 11.027
277 1 17.6837 14.1305 0.00672149 -4.42368 391530 -67809.4 604724 179754 180060 90456.5 13 11.151
278 1 19.4207 15.8631 56.5247 -4.42615 489064 351238 426210 -77521.6 38342.6 -555433 15 11.2569
279 1 19.4585 14.0661 1.86841 -4.41942 34535 181368 309156 5976.72 -130944 325716 14 11.1377
280 1 17.7092 15.8726 1.78095 -4.45276 703456 1.15268e+06 241690 -114452 231686 -143761 15 11.3586
281 1 21.2479 14.132 0.102889 -4.44693 315610 296426 234572 13135.1 -248377 -116800 15 11.0963
282 1 23.096 15.893 0.00459671 -4.38204 -248248 -272098 155838 156270 72695.7 167899 13 11.0334
283 1 22.9741 14.1591 1.81471 -4.45402 158571 596541 171656 263286 -482774 35218.4 13 11.126
284 1 21.2051 15.9355 1.82319 -4.37145 -156974 -795546 -279321 -174198 -645793 -299283 13 10.9199
285 1 24.6697 14.1643 56.5196 -4.41284 -364019 -372192 -127114 510308 -58659 251946 14 10.9068
286 1 26.4793 15.9305 56.5381 -4.42667 -102671 -536823 164770 608758 192883 -157449 14 10.9105
287 1 26.484 14.1086 1.75532 -4.43126 -308313 320088 966061 423433 547847 118513 14 11.1728
288 1 24.811 15.8949 1.86019 -4.37798 174137 -318375 -930743 -16135.6 -828126 537453 14 10.9871
289 1 28.2294 14.2283 -0.0289478 -4.42995 74819.4 458670 151777 -59307.3 -48598.9 119852 13 11.1129
290 1 30.0177 15.8632 -0.00802037 -4.4001 -216397 -670295 399961 -692937 11732.4 -230509 13 11.0011
291 1 29.8919 14.1948 1.76839 -4.40683 341240 -620776 -407046 -437048 -201592 283396 14 10.9071
292 1 28.1458 15.9539 1.85978 -4.42484 -87509.7 -272114 472543 -106179 36887.8 -582649 16 11.0478
293 1 31.7619 14.1174 -0.0175766 -4.39932 836928 -788876 -401813 -112062 -250996 -346080 14 10.993
294 1 33.6648 15.7864 0.0211886 -4.41915 -189945 521199 -355293 155102 331296 169980 14 11.0414
295 1 33.6099 14.1083 1.7582 -4.3839 -145901 -1.24165e+06 -164747 363735 -72814.4 -14542.1 12 10.753
296 1 31.8457 15.7865 1.65587 -4.40464 157317 -26815.8 -562648 340279 -227492 77661.2 15 11.0159
297 1 35.4802 14.1409 0.00658244 -4.41176 -132908 -462639 -126483 -231894 131222 -76850.1 15 10.8911
298 1 37.197 15.7845 0.0403015 -4.38449 -432885 -907206 -734852 -139788 -108776 -39645.9 15 10.7019
299 1 37.2313 14.108 1.7394 -4.40206 -366548 -654047 -415464 -226473 4782.78 517036 14 10.7914
300 1 35.3938 15.9339 1.71691 -4.42561 -248990 449167 -679352 10868.1 -83695.7 -86822.2 16 10.9025
301 1 38.9279 14.0596 0.0158835 -4.34582 -1.41768e+06 -1.83353e+06 -1.57385e+06 132106 772660 -114153 14 10.2575
302 1 40.596 15.8309 56.5392 -4.40425 -596114 -550129 -516746 -144750 229976 -734394 14 10.7625
303 1 40.7264 14.037 1.76751 -4.40852 -835356 -506045 679518 -394682 125246 -151370 14 10.8954
304 1 38.9296 15.7968 1.70684 -4.41028 -452133 -162663 -117785 -77372 188085 -516.017 14 10.931
305 1 42.4479 14.078 0.0071968 -4.41112 -396840 -329466 -117224 -261672 250237 -530962 13 10.8559
306 1 44.0998 15.9114 0.0170069 -4.44337 256403 237905 557334 -116394 38250.5 -407491 13 11.1535
307 1 44.1272 14.0535 1.79311 -4.42662 402814 269264 -538169 370211 -259351 -225199 15 11.0218