ITEM: TIMESTEP
4000
ITEM: NUMBER OF ATOMS
16379
ITEM: BOX BOUNDS pp pp pp
-3.1525140731524459e-02 5.6543525140731738e+01
-3.1525140731524459e-02 5.6543525140731738e+01
-3.1525140731524459e-02 5.6543525140731738e+01
ITEM: ATOMS id type x y z c_peatom c_satom[1] c_satom[2] c_satom[3] c_satom[4] c_satom[5] c_satom[6] c_coord c_voro[1]
1 1 56.3899 56.4747 56.4458 -4.42397 33408.4 -347971 -119709 101066 -635401 -133648 14 10.9384
2 1 1.62841 1.65789 0.0634276 -4.37555 -592667 60288 -784573 551617 -522527 471761 15 10.8932
3 1 1.6049 56.548 1.70007 -4.38051 -252870 -1.31645e+06 -249254 241667 176144 461949 13 10.7283
4 1 56.433 1.59801 1.66241 -4.37246 -1.12309e+06 -455612 -118254 -45669 580218 432884 15 10.8269
5 1 3.44176 -0.018752 56.5136 -4.38802 -857373 -858568 302499 -298036 -134509 -198383 14 10.8144
6 1 5.23439 1.72695 56.5381 -4.42027 -380076 -209972 101516 235002 20933 -827264 13 10.9081
7 1 5.27307 56.5362 1.79788 -4.44869 1.17249e+06 950615 680686 107380 -75491.8 -529709 15 11.5269
8 1 3.39227 1.72275 1.64588 -4.41462 14698.3 251446 -52378.4 -119206 -317867 -60837.6 15 11.0835
9 1 7.02773 0.089762 56.4998 -4.43236 258368 119739 201839 124278 -218075 -156350 13 11.1054
10 1 8.83439 1.80705 56.504 -4.40614 -325442 -392451 548449 -712128 290641 23448.9 13 11.0142
11 1 8.92248 0.0417696 1.62889 -4.42008 94498.1 79652.2 79922.4 -490245 -158091 -266602 15 11.0986
12 1 7.08651 1.79321 1.70209 -4.39481 718.445 -662844 -555518 222847 -121872 92332.9 14 10.876
13 1 10.6328 -0.0030627 56.4894 -4.43474 -408414 344544 98659.2 -123098 301376 -113710 15 10.9623
14 1 12.3501 1.72702 -0.0104667 -4.39906 -89129.2 -399307 90295.8 200730 136203 -137351 14 11.0379
15 1 12.3213 0.0751353 1.7472 -4.41014 32856.6 -653424 -391908 -12334.6 171295 -162222 15 10.8381
16 1 10.5784 1.76343 1.7279 -4.41489 -905654 -571494 111776 -485810 159131 -155692 15 10.7494
17 1 14.0074 0.0284627 -0.0192546 -4.4071 -92190.6 -348054 419304 130227 206676 300357 13 11.0457
18 1 15.7814 1.76125 0.0449503 -4.41588 133812 -242595 209443 -317638 -184123 364865 14 11.0921
19 1 15.7887 0.0930639 1.69873 -4.39146 -486616 -442693 -1.06261e+06 -609388 -310066 592489 15 10.7295
20 1 13.996 1.83215 1.81377 -4.39847 -492208 -406130 -435990 -12358.5 363234 -391168 15 10.8183
21 1 17.6082 0.0637281 56.5226 -4.43961 -30800.4 -357884 119791 -292933 -188120 89768.1 15 10.902
22 1 19.3636 1.70375 -0.0149845 -4.42344 -104691 -254154 -123519 -121449 119731 293334 14 10.8873
23 1 19.3904 0.0644648 1.77696 -4.42059 97760.1 -47549.4 450932 -115244 340013 240621 13 11.1163
24 1 17.5543 1.77118 1.73013 -4.40484 -692746 -489712 -398127 297893 38321.5 444743 13 10.7505
25 1 21.1457 -0.00271082 56.4738 -4.4145 21677.9 -170976 57167.1 474815 78388.6 659505 14 11.0498
26 1 22.8921 1.75135 0.0420374 -4.41437 435316 -55306 349740 -56052.9 193128 -68500.2 15 11.1953
27 1 22.9781 0.105294 1.7786 -4.41663 550921 -285272 113938 -312832 66005.5 5683.66 13 11.0686
28 1 21.1198 1.7802 1.7635 -4.41908 -424861 -86071.7 430649 -20493.4 196544 306732 13 11.0564
29 1 24.8406 0.0112073 -0.0303298 -4.43846 873744 200226 620218 -512168 5232.22 448782 14 11.3264
30 1 26.5218 1.79344 56.4916 -4.39195 -955478 543094 254031 68372.1 -57780.2 120979 14 11.0434
31 1 26.5096 0.0360286 1.77568 -4.42792 327343 718928 87664.1 416435 165322 20546.8 12 11.2021
32 1 24.7506 1.81381 1.76852 -4.43155 66898.1 -331696 425771 120431 303803 1948.43 14 11.0656
33 1 28.2144 0.0801822 0.0185821 -4.43163 -34182.7 258106 61797.5 411120 274734 534455 15 11.0338
34 1 29.9747 1.9001 56.544 -4.44159 277590 237500 114781 2537.79 22040.8 -6490.6 15 11.1228
35 1 30.0358 0.0125733 1.72061 -4.41879 71029.3 343473 -255636 -369141 644453 -602722 14 11.043
36 1 28.2473 1.98907 1.71341 -4.38448 290599 352141 -352692 -28081.7 201763 -390705 14 11.1841
37 1 31.7 56.5148 -0.0344416 -4.41054 138722 -54164.8 -704627 -451840 216199 37893.8 14 10.9209
38 1 33.4512 1.71786 0.00680166 -4.36795 -417296 -184508 -1.43924e+06 271074 -498425 -35848.9 14 10.7321
39 1 33.5533 0.0255246 1.72253 -4.41097 -309000 -1.00509e+06 120846 -308510 -170518 781672 14 10.821
40 1 31.8037 1.70875 1.75881 -4.43183 -465012 -79569.3 313624 247476 868422 -27963.6 15 10.9728
41 1 35.3265 -0.00472576 56.5207 -4.42348 34925.2 -386785 -410815 -90540.2 21654.6 542150 13 10.8626
42 1 37.1177 1.7314 0.0655209 -4.4296 24252.9 945724 545433 175682 -131869 281053 14 11.2933
43 1 37.0782 56.5119 1.75531 -4.42876 135028 -149988 264168 -253458 -3076.04 304152 13 11.0013
44 1 35.2476 1.72768 1.71831 -4.42038 -134196 138708 -271005 -318977 -195001 209157 15 10.962
45 1 38.8833 -0.0227986 56.5236 -4.40981 3972 -586531 -101690 -81256.8 185398 -97063.5 13 10.9009
46 1 40.6538 1.57638 0.152728 -4.37438 -817914 -749157 246443 -84358.9 410347 -173525 14 10.9253
47 1 40.6578 56.46 1.85748 -4.41467 -124920 133392 99104.3 -135816 333652 449574 14 11.0683
48 1 38.8531 1.64822 1.7671 -4.41518 -377294 343111 -251454 -290880 -58407.7 154170 14 10.9617
49 1 42.3367 56.5293 0.0592436 -4.41793 -375600 -162018 631751 893286 155024 -120005 14 11.0685
50 1 44.1683 1.70107 56.5376 -4.42753 119239 344248 436737 698811 -89019.3 531203 14 11.1935
51 1 44.247 0.039215 1.71017 -4.38281 -105958 -502804 -350088 586261 -320386 359575 13 10.905
52 1 42.5444 1.6747 1.83118 -4.39947 54192.2 67713.6 -97847.5 429207 -440803 -183875 13 11.0688
53 1 45.9662 0.0782664 56.5323 -4.39434 -237530 -328560 -406505 1335.35 50304.3 -215944 13 10.8631
54 1 47.7462 1.70271 0.0108698 -4.41719 5881.47 -183580 345514 -344833 -216163 120537 14 11.063
55 1 47.6786 56.5396 1.68238 -4.429 566275 -219800 -237823 -147009 -517692 351909 16 11.0092
56 1 45.9734 1.7788 1.72515 -4.41838 -458188 -427274 -457944 -648189 -385395 -84822.4 15 10.8385
57 1 49.5424 -0.0223099 56.4592 -4.42261 -40394.5 843758 280183 -66460.8 -199619 -200808 15 11.2324
58 1 51.364 1.73433 56.4805 -4.39946 645819 -378519 -245060 -466862 -136802 106139 13 11.1326
59 1 51.302 56.4785 1.65046 -4.42845 168128 564140 232268 -83094.4 502549 -236604 15 11.21
60 1 49.4647 1.84191 1.73108 -4.41349 116507 547458 269586 204860 -420536 297706 15 11.2727
61 1 53.0124 56.4108 -0.0267179 -4.38753 -1.19958e+06 8860.88 -417492 328127 569107 374771 15 10.766
62 1 54.744 1.74852 56.4942 -4.41483 -283772 -222506 -702123 616264 -513492 463812 16 10.8196
63 1 54.6995 0.0201947 1.79238 -4.40854 -264111 -339581 172603 -645579 87340.8 209482 16 10.9623
64 1 53.0014 1.78756 1.73354 -4.41882 -439493 313292 542265 607287 81732.3 31653.5 14 11.075
65 1 -0.00743855 3.47305 0.0499211 -4.42386 -416370 -36658.7 205105 113853 -83493 138879 13 10.964
66 1 1.66669 5.23894 56.5016 -4.40984 -372018 18348.6 -172377 134689 -24819 -260322 14 10.9177
67 1 1.66604 3.47878 1.79114 -4.42493 -455084 12724.3 245169 200454 -342354 -270815 14 10.9584
68 1 0.0775736 5.31305 1.83426 -4.41307 268369 250651 124209 -51599.2 286242 337468 14 11.1699
69 1 3.52511 3.48879 0.0241876 -4.40784 707585 -401680 -442569 250668 -174264 -370456 13 11.0139
70 1 5.28156 5.24159 56.4868 -4.39278 -249065 -481667 116511 -414112 -523667 -453645 12 10.9512
71 1 5.26814 3.38484 1.77356 -4.42763 -224254 194083 259443 218360 -11267.4 -48546.9 14 11.0315
72 1 3.43859 5.09571 1.73443 -4.41658 341695 -323928 -394315 54109.1 421616 -656912 16 11.0234
73 1 7.00099 3.43922 0.0206355 -4.40577 621136 -52836.3 251856 258469 -114533 142141 15 11.2498
74 1 8.83443 5.25597 56.5346 -4.41984 240479 258784 -128596 260822 -107800 -319050 14 11.1636
75 1 8.79534 3.5154 1.7718 -4.42438 -287995 -376355 -428467 -350914 138054 175919 15 10.7757
76 1 6.95984 5.20499 1.7115 -4.43588 551437 178027 85796.4 83869.3 -150714 -200911 13 11.1255
77 1 10.4468 3.49044 56.4893 -4.40047 -523769 -570614 -114652 -404281 -227860 -368598 15 10.8615
78 1 12.239 5.31096 56.4783 -4.37206 -18937.8 -831841 -1.35831e+06 654691 -398047 -855892 14 10.6924
79 1 12.2432 3.50191 1.62689 -4.40371 -422016 -376164 493748 458091 463892 -226003 15 11.0001
80 1 10.5678 5.21632 1.69153 -4.41591 -278306 -590794 -168949 240760 -262447 -63737.5 16 10.8321
81 1 14.0599 3.59719 56.5049 -4.43547 578452 261627 209707 37566.4 166541 -492416 12 11.1766
82 1 15.9276 5.28075 56.396 -4.39029 -41103.9 -52504.7 -9893.2 -90243.6 272163 -415899 14 11.0835
83 1 15.9064 3.5015 1.7519 -4.42302 -82104.4 223577 329603 77488.7 -91091.3 -433244 15 11.1682
84 1 14.0592 5.31463 1.61558 -4.43381 818040 515016 761520 132096 63413.6 -527237 16 11.4384
85 1 17.5622 3.45086 56.4955 -4.41322 1064.72 383785 338831 144229 528657 43444.4 13 11.1969
86 1 19.3075 5.3308 56.469 -4.40814 1.26614e+06 98012.8 772425 626547 91460 -536919 15 11.5067
87 1 19.4397 3.49113 1.69102 -4.42542 466000 339063 581026 169707 34241.8 24014.8 15 11.2863
88 1 17.5944 5.30926 1.89768 -4.2613 -519405 -1.12066e+06 -1.2476e+06 126098 -6482.39 -318538 13 10.907
89 1 21.2073 3.4891 0.0185642 -4.40597 147721 157631 -152613 124285 -13923.1 -41323.6 14 11.0664
90 1 22.9638 5.26886 56.4966 -4.43162 -24699.7 231250 -110732 167492 -44385.6 260147 12 11.1158
91 1 22.9324 3.44853 1.74243 -4.41222 129380 -111985 -285564 97237.6 -79874.3 -404544 14 10.9803
92 1 21.1551 5.27961 1.68478 -4.435 917777 524840 890828 54483.1 -244768 -10446.6 13 11.4305
93 1 24.6469 3.51464 0.00533831 -4.40759 628327 -178658 251733 227379 1888.99 -509838 13 11.2142
94 1 26.4939 5.32947 56.4215 -4.38969 -91465.1 597221 -330845 288081 -768024 414652 13 11.1155
95 1 26.4557 3.63243 1.7243 -4.4108 -228711 69149 767940 444982 134851 -414896 14 11.1359
96 1 24.7045 5.28912 1.68061 -4.41603 -53259.3 -402743 308654 892368 -344088 -583964 14 11.0113
97 1 28.2521 3.60377 56.516 -4.41567 449757 -574060 152402 410909 382175 423458 14 11.0407
98 1 30.1561 5.25474 -0.0144028 -4.4088 -9326.61 -359098 -138863 217619 234596 -569721 14 10.9723
99 1 30.1711 3.49887 1.83454 -4.39107 -255341 -396930 -169913 -623114 -167739 -9295.01 16 10.9458
100 1 28.2575 5.35522 1.67603 -4.42109 537711 92596.8 451052 -590667 359040 -216021 13 11.2491
101 1 31.8394 3.57304 0.00447855 -4.39223 -978183 -538046 -115129 313426 -352319 -312592 12 10.7205
102 1 33.4918 5.32916 0.093227 -4.42986 432476 75263.8 549186 -288698 264032 144250 14 11.2471
103 1 33.5017 3.51676 1.73662 -4.43103 189366 174955 90663.8 438346 -453018 -15213.5 14 11.1199
104 1 31.8029 5.26123 1.84963 -4.38431 -970729 -80579.6 18607.3 282238 -299198 -94629.2 12 10.9028
105 1 35.3544 3.51642 0.0400809 -4.43682 816069 302946 490060 -243010 -86581.5 332462 13 11.2864
106 1 37.1055 5.19919 0.0443434 -4.39063 21748.8 618856 84081.4 5797.46 386920 -141875 14 11.234
107 1 37.1316 3.52442 1.83288 -4.41064 653329 -72950.3 -340972 210182 -154188 613191 14 11.0484
108 1 35.4469 5.36108 1.7331 -4.38269 -265636 21099.2 -640267 273018 109246 -188059 14 10.9186
109 1 38.924 3.54527 0.0349877 -4.40279 11758.3 187772 218293 -382420 -281634 -148921 13 11.1228
110 1 40.6405 5.19447 56.5046 -4.41601 293886 249466 161690 -599167 -54260 -175323 14 11.1874
111 1 40.6046 3.44013 1.74407 -4.42123 -85179.7 328413 -601601 -389878 -683167 -50689.4 15 10.9291
112 1 38.927 5.33771 1.73994 -4.38388 16447 -368176 194195 -1.06379e+06 -166239 -929693 14 11.0856
113 1 42.3779 3.37646 56.5576 -4.41254 309783 619572 40241.5 443159 -319675 -639278 14 11.2876
114 1 44.258 5.26112 56.5438 -4.40444 239809 462208 37923.4 87897.1 -208441 629064 14 11.2337
115 1 44.1411 3.58829 1.72862 -4.42482 118097 216030 718696 45886.2 -464805 329341 13 11.238
116 1 42.3618 5.18629 1.81173 -4.37173 -528158 15202 -53713.8 496818 -257419 530383 13 11.0492
117 1 46.0108 3.5271 -0.0324426 -4.43583 325341 -95884.9 241125 24816.6 -23562 370541 16 11.123
118 1 47.7117 5.25349 -0.0331683 -4.39909 -350104 -591663 -367649 274471 -47561.7 -448001 13 10.797
119 1 47.7085 3.50087 1.71232 -4.41693 -601574 -527780 -478189 90031.9 -182049 427658 14 10.6859
120 1 45.9524 5.29628 1.68464 -4.38703 -591769 -121885 -183778 -878933 -788073 161240 14 10.9529
121 1 49.4018 3.58011 56.496 -4.39954 -336897 454204 108378 169281 283929 159915 14 11.1772
122 1 51.3003 5.26566 -0.00595965 -4.41068 86546.6 276399 -240977 -183984 -113027 -423193 12 11.0532
123 1 51.3362 3.49638 1.73265 -4.41975 471606 38373.7 688945 170732 -178690 359182 15 11.3037
124 1 49.443 5.31182 1.79637 -4.41404 -19906.9 -249905 396832 104237 -395883 -146257 16 11.0843
125 1 53.0694 3.47265 56.4487 -4.37791 -1.0073e+06 -677492 -338060 14877.6 104980 364247 13 10.6969
126 1 54.8151 5.20601 -0.00416047 -4.42931 -83862 573622 427770 -400058 605187 322124 16 11.1938
127 1 54.8008 3.50583 1.747 -4.44084 717049 93746.4 -102750 121010 256780 27250 15 11.1091
128 1 53.0694 5.31525 1.63363 -4.38218 -876888 90863.7 256874 -531025 -538074 -20730.7 13 11.0075
129 1 56.547 6.9529 0.0837682 -4.40359 528149 -400655 238656 109772 -20174 -317201 14 11.1223
130 1 1.70816 8.7791 0.0512899 -4.42876 90726.7 169519 401776 230252 339177 -356972 14 11.1181
131 1 1.8372 6.99373 1.7739 -4.42201 -362917 207644 -10755.8 -346339 -225526 246556 13 10.9872
132 1 56.4962 8.69778 1.72961 -4.40459 130968 227719 -485839 18111.6 253855 -10754.4 14 11.024
133 1 3.53146 7.00666 0.00494955 -4.44347 506943 216101 -380060 231081 69493.9 -403251 15 11.0252
134 1 5.37397 8.80962 56.5478 -4.39319 -932537 -505522 -760268 232823 121469 -48106.7 14 10.7073
135 1 5.20982 7.02509 1.77313 -4.37481 -1.1841e+06 -193903 -578952 1.09841e+06 132399 357183 14 10.7659
136 1 3.62542 8.70939 1.74298 -4.39725 -237390 -841352 68983.8 397382 -20165.8 -223985 14 10.889
137 1 6.89279 6.99045 0.00629347 -4.40931 -153227 -319223 467864 56292.8 -44296.6 134121 14 11.049
138 1 8.72624 8.79737 56.5096 -4.41593 786348 287252 -344752 440201 -774447 -351367 14 11.1811
139 1 8.80888 6.99002 1.65132 -4.43143 237993 897335 149900 37103.1 158430 -140324 14 11.2969
140 1 6.99249 8.80415 1.8008 -4.41819 -575196 245005 -462253 2392.07 -79815.8 323338 14 10.8972
141 1 10.5628 7.05093 -0.0106612 -4.38387 -900065 -284103 -689816 196353 -192496 -456932 13 10.7114
142 1 12.3611 8.79156 56.5143 -4.41268 2219.22 -973644 -866794 97137.2 -32216.7 -159924 13 10.7051
143 1 12.3092 7.01686 1.57925 -4.39531 -168871 -295031 -559602 -186548 -511582 22219.4 14 10.8869
144 1 10.4918 8.91887 1.63223 -4.43117 307569 408250 645530 35295.5 -210130 -198993 14 11.2614
145 1 14.1302 7.09803 56.4636 -4.42903 30991.5 122849 -585227 309623 367876 16649.4 13 10.9098
146 1 15.8949 8.93515 56.5123 -4.43422 -39375.1 313023 690572 -194108 95137 -466711 14 11.1958
147 1 15.8843 6.99462 1.67534 -4.42402 -171474 275739 265446 445467 -165656 -69003.7 14 11.078
148 1 14.0868 8.7073 1.73997 -4.4122 -187444 -118361 -34295.1 408406 -311882 -174102 13 10.9513
149 1 17.6347 7.02475 56.5309 -4.41772 -511881 314938 604024 12077 129497 -107841 14 11.1127
150 1 19.3733 8.8252 56.5015 -4.41181 -87834.3 190044 -152641 279537 512468 -38328.6 14 11.0349
151 1 19.4178 7.04606 1.65558 -4.42705 570882 727387 505278 304413 -220415 -193683 13 11.3466
152 1 17.6669 8.85041 1.71419 -4.4209 110549 596791 -112162 148968 -124076 -72558 12 11.1062
153 1 21.2579 7.11459 56.525 -4.41264 119102 -30486 134392 -273985 355051 196995 14 11.0812
154 1 22.9326 8.7954 56.4725 -4.40335 -364667 -304896 519914 8161.45 146253 -258584 13 11.0421
155 1 23.0323 7.032 1.71216 -4.3919 -345013 466911 -261044 189081 -262658 4707.81 14 11.0529
156 1 21.2377 8.90864 1.67438 -4.43244 608851 614651 482485 -641863 -127565 -165836 15 11.3521
157 1 24.68 7.16153 0.0137784 -4.40622 -191427 55771.2 -488932 355026 104872 -19526.6 15 10.9251
158 1 26.4904 8.91992 0.0111792 -4.42378 -212213 444195 -319127 -248637 677266 194077 15 11.0483
159 1 26.4857 7.09393 1.74684 -4.4432 311375 387338 335908 241403 -232477 547641 15 11.1656
160 1 24.7077 8.88176 1.78274 -4.43967 384624 297578 -22831.6 -10587.5 86320 -337001 15 11.073
161 1 28.3315 7.09321 0.00347084 -4.42551 601260 399050 27306.5 -406418 -80764.3 664923 15 11.1928
162 1 29.9817 8.89174 0.0746112 -4.41356 -228793 90958.2 -63026.2 -214562 178858 -287211 15 10.9723
163 1 30.0822 6.9522 1.73542 -4.41481 -27607.9 411185 429616 -46074.9 144380 -380188 14 11.2094
164 1 28.2564 8.91024 1.76417 -4.42863 257390 412218 -166785 -351177 285362 64956.5 14 11.0661
165 1 31.7965 7.0727 56.524 -4.39332 -99711.8 -274258 -392239 65045.7 90354.1 32036.1 14 10.9407
166 1 33.6584 8.89267 56.5321 -4.40265 -434617 -28031.5 -752010 141402 221022 -781050 14 10.8017
167 1 33.6612 7.08559 1.80018 -4.41757 718712 -176120 -265549 311851 109704 -242244 14 11.1055
168 1 31.8708 8.82142 1.62958 -4.43006 171891 370347 416176 -197397 -67736.8 12494.6 13 11.2005
169 1 35.3018 7.07944 56.5102 -4.41556 -20617.6 364273 -348464 162717 -549083 173017 13 11.0034
170 1 37.0809 8.9251 0.0667213 -4.34838 -1.09395e+06 -427202 -1.18319e+06 454322 298868 828663 14 10.702
171 1 37.0749 7.16319 1.58514 -4.35979 -54675.2 -850639 228036 -420054 -55342.8 542012 14 11.0703
172 1 35.4118 8.92934 1.70342 -4.39049 -368112 301018 302286 537028 631434 -221640 14 11.1965
173 1 38.8685 7.18554 56.52 -4.34167 -803231 -130092 126602 -1.12679e+06 309656 419464 14 11.0966
174 1 40.595 8.64458 56.4496 -4.34989 -795777 -923044 657885 -978072 -185652 228001 14 10.9867
175 1 40.6115 6.91472 1.72654 -4.39099 -389202 -117852 136156 -687727 438005 166030 15 11.0735
176 1 38.8278 8.85611 1.76168 -4.42059 -51156 -141335 -312648 -904786 -415063 -88949.7 15 10.9518
177 1 42.4214 7.0434 0.0226512 -4.42785 -36323 552103 277199 58573.9 -177878 -249212 14 11.1838
178 1 44.1003 8.85062 56.5178 -4.4048 -527421 -385145 -503365 -14853.6 -5790.16 161227 12 10.7332
179 1 44.0812 7.10993 1.75893 -4.40846 -201500 219090 -92273.4 439658 -164854 40774.3 14 11.0444
180 1 42.4515 8.83043 1.75305 -4.3781 -182772 -1.00613e+06 -604598 936744 134681 193785 14 10.79
181 1 45.9247 7.07705 56.5422 -4.44639 502279 63727.4 105001 -226402 -405186 246499 13 11.1251
182 1 47.805 8.79505 -0.015796 -4.4307 441633 319560 999343 37524.6 -155371 -117162 14 11.3385
183 1 47.6873 6.88875 1.71349 -4.36139 -485523 -332640 -90529.9 -187954 -122708 724.077 13 11.0023
184 1 45.8658 8.8638 1.75032 -4.42126 464330 -75690.4 -110035 66933.8 176197 246955 14 11.0983
185 1 49.5121 7.09157 56.5354 -4.42972 235493 35474.1 401553 62714.9 -264805 75227.3 14 11.1121
186 1 51.208 8.80202 0.0408647 -4.42342 217041 219851 841681 221184 -118632 50117.8 15 11.2779
187 1 51.2094 6.98525 1.77202 -4.44094 57025.2 348353 29266.3 -283663 -263862 -33684.6 15 11.0357
188 1 49.4251 8.79206 1.85021 -4.4085 -580170 524330 -417425 -72875.2 32858.1 439142 14 10.9742
189 1 52.946 7.1184 56.4914 -4.42511 949147 52675.8 572569 23304.6 98481.2 26013 13 11.3077
190 1 54.8038 8.86531 56.5317 -4.42982 465151 558725 595917 -102039 -55089.3 104773 15 11.3367
191 1 54.6418 7.05473 1.80983 -4.34298 -137276 -1.12336e+06 -169920 -810453 259006 -193775 14 10.9583
192 1 52.9304 8.82397 1.79963 -4.41436 -289971 -7625.25 -266326 510682 -528002 139948 14 10.929
193 1 0.0466418 10.5395 56.539 -4.41678 563931 331261 437228 -51436.3 -255265 -173170 14 11.3125
194 1 1.90653 12.3451 0.0418942 -4.37907 -154713 -43286.4 -117161 -348871 -104980 233042 14 11.0675
195 1 1.74144 10.5694 1.76356 -4.41461 626799 790920 -357359 -244920 190946 566316 13 11.2328
196 1 56.5182 12.4339 1.6967 -4.42121 777187 160603 476473 -527072 286833 -102719 14 11.3163
197 1 3.5055 10.5363 0.00607082 -4.4167 88648.3 -474253 -16768 8293.38 177114 -812055 15 10.9608
198 1 5.18528 12.2972 56.5081 -4.4295 -125465 -355507 -84992.3 -80735.1 50408.5 -133682 14 10.8958
199 1 5.31019 10.5502 1.68546 -4.42801 -233749 -557386 -169885 49962.4 147408 30668.4 14 10.7839
200 1 3.54729 12.31 1.75481 -4.41203 -430204 -35751.6 -344588 -445395 -643921 -1105.01 13 10.9193
201 1 6.98967 10.5915 56.4854 -4.41 -679331 -397517 45138.6 -529003 1880.45 -411109 15 10.8318
202 1 8.69466 12.3254 -0.0182896 -4.4373 920538 538537 907470 -191557 123.727 -212407 13 11.4443
203 1 8.72196 10.5424 1.72995 -4.42632 260895 53424.7 594122 124777 -212410 205187 13 11.1795
204 1 6.93198 12.3639 1.73413 -4.42661 432350 52904.5 -87793.7 -210296 296545 369209 13 11.0636
205 1 10.6634 10.6647 56.4902 -4.38324 360620 -343956 -731193 -399455 -239086 -525926 14 11.0658
206 1 12.3495 12.3225 -0.0143393 -4.4016 -400886 -55983 115045 -305714 -155050 -443719 12 11.0044
207 1 12.4123 10.4401 1.66073 -4.38791 -573840 -109765 -501931 189926 -471808 -83839.7 15 10.8421
208 1 10.6269 12.1958 1.72003 -4.39098 778753 -148612 -832486 -347820 289556 -55844.9 14 11.0553
209 1 14.1133 10.6028 56.517 -4.4319 -330031 119256 169026 244966 224847 -452872 13 10.9738
210 1 15.8931 12.3237 0.0445802 -4.43463 351747 474254 588653 -104423 141707 -153729 13 11.2564
211 1 15.8389 10.5864 1.79873 -4.42977 1.0634e+06 231970 85047.3 311579 -243323 115791 14 11.2707
212 1 14.0869 12.3572 1.70282 -4.41708 -90910.4 183180 248431 626288 295500 15096.2 14 11.0751
213 1 17.6531 10.5484 56.4758 -4.39003 268827 119406 751799 -24570.9 372034 -61537.1 13 11.3672
214 1 19.4761 12.4196 56.5368 -4.42564 409510 314602 367360 232454 332051 112580 14 11.2251
215 1 19.3653 10.6959 1.77528 -4.43679 601926 169347 599773 -296752 -70643.8 137760 14 11.2844
216 1 17.6395 12.4709 1.82516 -4.35791 -800196 -268593 235152 860012 -41606.1 259649 14 11.0422
217 1 21.194 10.6431 56.4497 -4.39982 380817 -596387 -211042 27101.6 -25326.2 565964 12 10.9956
218 1 22.9957 12.3123 0.0148102 -4.40002 -827452 -109107 -560371 187978 -855027 8107.75 14 10.7893
219 1 22.8845 10.615 1.7695 -4.38513 -403709 -1.1508e+06 -46555.3 -114004 -23879.7 124290 13 10.7643
220 1 21.2015 12.3032 1.77814 -4.42664 -623590 -262320 273257 507501 -159912 473987 14 10.9028
221 1 24.7172 10.6333 -0.00951772 -4.41198 32291.3 -428245 532488 243605 -240831 -261238 13 11.0718
222 1 26.43 12.3214 56.4804 -4.43315 -184073 546502 -136974 -168586 21445.8 327237 15 11.0846
223 1 26.4828 10.7167 1.77099 -4.40077 -405375 -442584 -715091 180671 -100249 -94319.2 13 10.7208
224 1 24.7127 12.3422 1.64816 -4.39655 -470349 -210634 -435002 290708 -82774.3 -382487 14 10.8577
225 1 28.2256 10.6314 -0.0101317 -4.41946 -54743.2 -828983 222673 -275031 568.032 14754 13 10.8586
226 1 29.9708 12.3231 0.0594901 -4.40804 -72382.1 256637 -178715 -223045 -514175 449903 14 11.0821
227 1 30.0436 10.6232 1.73946 -4.41975 697021 -315343 -200065 -334649 204587 -43480.9 13 11.0308
228 1 28.2164 12.4317 1.73627 -4.40773 -954217 -477097 138172 -325398 131302 123686 13 10.7903
229 1 31.8032 10.6287 56.5409 -4.43331 593305 -41358.8 121932 -19644.8 -238346 -95780.9 14 11.0859
230 1 33.6463 12.3387 0.00289752 -4.44366 572958 663445 476871 206274 -94533.4 70359.4 15 11.3247
231 1 33.6017 10.5669 1.69246 -4.40947 562737 6824.41 118646 83357.1 361567 -418031 13 11.1805
232 1 31.797 12.4334 1.69255 -4.42832 189756 466272 -427225 -316513 -185633 296134 14 11.0222
233 1 35.3985 10.6424 56.5182 -4.39111 -739872 -523654 -122550 293908 393171 -98968.5 13 10.8243
234 1 37.1919 12.3408 56.5019 -4.35833 -754107 -753034 -896025 -231054 737332 -592844 15 10.7426
235 1 37.1327 10.7442 1.80144 -4.40711 -45303.1 242201 -209582 -198259 774511 -475152 13 11.0543
236 1 35.3582 12.4492 1.87552 -4.40527 -23046.1 105537 665859 663468 166913 -51345.9 14 11.2046
237 1 38.9381 10.5881 0.018129 -4.44303 355908 -60575.8 -443901 78581.2 -232253 293807 15 10.9227
238 1 40.6985 12.4198 56.4672 -4.39677 -624998 -395757 14083.3 351616 -558221 284180 15 10.8987
239 1 40.6318 10.4502 1.71829 -4.386 -1.34481e+06 393171 -318001 -389053 -404671 10221.4 13 10.8528
240 1 38.9686 12.3875 1.73782 -4.4159 -207717 -573578 -302377 -320587 134032 597734 15 10.8214
241 1 42.3268 10.4963 56.4982 -4.39421 -376304 739864 -322965 563685 -289893 -183789 14 11.1025
242 1 44.1888 12.3592 0.0151332 -4.43803 582618 297474 311770 418557 -260733 -196160 15 11.214
243 1 44.2005 10.5959 1.73788 -4.43314 -98452.3 -573191 506255 -52691.2 149922 273162 16 10.9602
244 1 42.3103 12.2427 1.7463 -4.4184 432522 -237896 244612 468567 122084 591851 14 11.1347
245 1 45.938 10.5214 56.5172 -4.43229 321165 -258805 -26056 -481561 -78984.6 -288701 13 11.0294
246 1 47.6467 12.2763 0.0211018 -4.43084 -359771 222786 -58546.1 -52532.8 -198766 271434 16 10.9725
247 1 47.6933 10.5922 1.83031 -4.40565 73734.5 -693737 -208337 303326 414062 132586 15 10.9003
248 1 45.9549 12.2537 1.71524 -4.40211 -914355 242186 -146259 -33222.9 377176 -53842.7 14 10.8847
249 1 49.4608 10.5598 0.0123269 -4.41589 -183787 -40110.7 797315 -514766 -238107 -185378 14 11.1223
250 1 51.2476 12.1808 0.010979 -4.41345 -485026 -246684 213819 -10195.1 350502 288812 14 10.9302
251 1 51.1804 10.5229 1.78342 -4.41286 333260 -816203 -340701 87447.2 -264059 573859 14 10.8701
252 1 49.4422 12.3523 1.64918 -4.40892 323569 168691 -147645 -223363 12863.9 -142096 15 11.1142
253 1 53.0499 10.6276 0.0465547 -4.43655 -144565 235313 549147 457469 140971 90507.3 15 11.1433
254 1 54.6982 12.4177 56.4848 -4.37104 -337386 -116066 256419 70970.9 -585940 -122367 15 11.1238
255 1 54.8102 10.5981 1.79894 -4.41741 398428 429481 -63927.7 8511.8 -252648 -357774 12 11.1684
256 1 52.9493 12.312 1.89376 -4.38508 211262 -496786 -440710 299312 270092 220651 14 10.9517
257 1 56.5278 14.1372 -0.0208213 -4.37956 129870 -610469 -493435 -727143 -87825.9 -475344 14 10.9115
258 1 1.6921 15.7449 -0.000367488 -4.40788 63026.8 -175884 157712 -72798.5 159105 -476951 15 11.0834
259 1 1.72799 14.0718 1.81081 -4.40769 -392286 -386780 -132947 -456740 482313 -208036 13 10.8591
260 1 56.467 15.7282 1.69471 -4.36645 -97834 -79632.8 -237731 -505849 216500 -167656 14 11.1113
261 1 3.50327 14.0696 56.5105 -4.37797 -980401 -1.04971e+06 222319 -779742 -625387 -62304.8 13 10.738
262 1 5.14278 15.8021 0.0109026 -4.39635 387214 -563303 -119293 -665719 158661 318835 14 11.003
263 1 5.12686 14.1264 1.76876 -4.40796 -282347 -95485.2 -93270.1 17140.2 437739 263699 14 10.9563
264 1 3.41459 15.8235 1.79597 -4.3846 -983602 -621930 -328082 -224724 604489 -504002 13 10.7497
265 1 6.91037 14.0711 0.0443128 -4.43716 686796 433826 566211 200483 -106929 638755 15 11.3037
266 1 8.78282 15.8412 -0.01921 -4.4039 589173 -478871 -219920 321037 -115691 524432 12 11.0009
267 1 8.78628 14.1356 1.73043 -4.4238 696689 624191 -38775.2 -110921 76706.1 76641.4 13 11.2579
268 1 6.98278 15.894 1.83075 -4.44605 581555 578068 492435 222046 29465.1 290068 14 11.2634
269 1 10.5582 14.0952 0.0183075 -4.45135 505737 780698 526898 336123 -88118.5 -138625 14 11.3024
270 1 12.4369 15.8368 56.5569 -4.40795 -182173 -460557 -699689 -198002 -343961 -624395 15 10.8193
271 1 12.3513 14.001 1.72392 -4.39471 -340279 -444444 -556657 567881 542807 -289962 14 10.8189
272 1 10.6605 15.886 1.74174 -4.38657 -583640 -620612 212867 -1.01804e+06 -118455 105944 15 10.89
273 1 14.1885 14.154 0.0221116 -4.43251 343406 -40121.6 539649 136954 166967 -28767 14 11.19
274 1 15.929 15.8821 -0.0166042 -4.44388 505266 448741 1.13289e+06 -292959 -34271 10850.2 15 11.3542
275 1 15.966 14.0602 1.80918 -4.3808 -669381 -481322 -22351.7 879582 276222 -362845 14 10.8567
276 1 14.1591 15.8467 1.7727 -4.44119 263143 258296 -102816 222960 -147147 -233410 15 11.0279
277 1 17.6422 14.1168 0.0234589 -4.4222 477035 136226 227720 134313 117348 220086 13 11.1411
278 1 19.4167 15.8933 56.5374 -4.42638 746588 542371 479636 126091 75212.6 -421940 15 11.3672
279 1 19.479 14.0601 1.83337 -4.43443 213869 458046 468715 -66826.7 107693 110326 15 11.2454
280 1 17.6916 15.8786 1.79834 -4.45111 835689 1.33568e+06 483891 -217284 295012 -9278.53 15 11.4689
281 1 21.2568 14.1338 0.128846 -4.43489 266075 419587 -27854.5 -155941 -357705 97748.6 14 11.0892
282 1 23.0446 15.9449 -0.00839574 -4.39816 -253257 -128881 146138 55173.8 -246103 335070 14 11.0083
283 1 22.9704 14.173 1.80661 -4.44502 84809 682915 150091 153796 -478793 45033.9 14 11.1456
284 1 21.2147 15.9562 1.88499 -4.37267 -145002 -567655 32452.5 -253105 -362462 -238643 12 11.0143
285 1 24.6664 14.1908 56.5099 -4.43808 93573.6 94871.5 163618 228089 -76995 25915.6 14 11.0926
286 1 26.4932 15.925 56.5227 -4.42751 -198305 -322952 417046 647758 148121 -65800.6 14 10.9941
287 1 26.4968 14.1002 1.76574 -4.44027 -23563.8 454266 875708 345058 530185 -9341.73 14 11.2121
288 1 24.7876 15.9097 1.81885 -4.40439 433396 12873.6 -722021 -42613.2 -635188 472091 14 11.0757
289 1 28.2004 14.2096 -0.036971 -4.42835 19740.8 512833 111346 220072 -183592 3292.8 14 11.1149
290 1 30.0588 15.8359 -0.0168161 -4.38985 -235028 -477159 172915 -423910 62169 79661.7 13 11.0155
291 1 29.8746 14.1704 1.71025 -4.39812 291518 -735286 -460751 -393239 -150899 714482 15 10.8878
292 1 28.1434 15.9445 1.85248 -4.41962 -37821.4 -281729 592669 -179703 83764.6 -463674 15 11.0845
293 1 31.7797 14.1237 0.000194952 -4.39185 789966 -871862 -463676 272613 -167472 -348121 14 10.9915
294 1 33.6454 15.8147 0.00547129 -4.42538 -166672 482569 -440559 177536 168035 326973 14 11.0072
295 1 33.6488 14.124 1.74643 -4.39868 -126762 -916428 -81097.8 488809 -172588 108538 13 10.8096
296 1 31.8263 15.7845 1.66297 -4.40063 393814 304709 -497283 292638 -248817 27147.1 14 11.1696
297 1 35.4925 14.1567 -0.00444866 -4.40621 -93201.2 -293696 34065.9 -249064 207415 -200290 14 10.9812
298 1 37.1877 15.7928 0.0844471 -4.37868 -496561 -767395 -622896 -514082 -222484 16441.8 15 10.7515
299 1 37.2323 14.1027 1.75184 -4.39165 -213518 -812209 -534850 -376244 72990.6 614940 13 10.7961
300 1 35.3655 15.9286 1.71191 -4.4206 -415584 321541 -716929 -66965 -98028.5 -359809 16 10.8416
301 1 38.9438 14.0075 0.0629687 -4.34676 -1.17435e+06 -1.6087e+06 -1.4122e+06 77071.7 786182 -39856.2 14 10.3759
302 1 40.5896 15.8258 56.5455 -4.41726 -295427 -98196.7 22239.5 68821.3 101854 -634576 14 10.9661
303 1 40.7337 14.0355 1.8197 -4.41593 -686923 -351831 614635 -369324 81292.4 -43103.8 14 10.915
304 1 38.9052 15.8008 1.71741 -4.4001 -491738 -73379 -251144 -134808 9358.21 11775.5 14 10.9397
305 1 42.4649 14.0764 0.0225005 -4.41697 -72129.5 -15999 163939 -215022 90381.8 -363967 13 11.0097
306 1 44.1598 15.8965 0.0322238 -4.44002 232268 420234 724762 -112820 -208003 -274491 14 11.2284
307 1 44.1491 14.0791 1.78782 -4.43152 874550 368964 -432488 339287 -504313 -166262 16 11.1502