ITEM: TIMESTEP
3000
ITEM: NUMBER OF ATOMS
16377
ITEM: BOX BOUNDS pp pp pp
-3.2348475782800534e-02 5.6544348475783146e+01
-3.2348475782800534e-02 5.6544348475783146e+01
-3.2348475782800534e-02 5.6544348475783146e+01
ITEM: ATOMS id type x y z c_peatom c_satom[1] c_satom[2] c_satom[3] c_satom[4] c_satom[5] c_satom[6] c_coord c_voro[1]
1 1 -0.0349576 56.5336 56.5007 -4.4222 146248 -189950 -291985 -30035.4 408907 109767 14 10.9624
2 1 1.64119 1.75138 56.5066 -4.42108 -181966 434763 201359 -123198 421270 -229986 14 11.1026
3 1 1.66814 56.5273 1.83472 -4.40935 4018.44 -521505 194952 -418195 -65465 -21031 15 10.9698
4 1 56.5459 1.80529 1.68426 -4.45176 468732 484566 340773 87817.2 145305 291950 14 11.2066
5 1 3.47822 0.0297406 56.5464 -4.39894 747237 -896319 -699071 -130828 -329453 -163549 13 10.868
6 1 5.32288 1.74542 0.00435355 -4.43006 828406 329090 447490 -83837.9 -240704 399111 14 11.3151
7 1 5.34265 56.5116 1.68629 -4.41734 -28937.6 -84248.8 -123618 169632 226747 -191784 16 10.9831
8 1 3.48787 1.60178 1.72804 -4.42341 1.13541e+06 995068 515218 -105655 217627 -706520 15 11.5969
9 1 7.01165 56.5051 -0.00271038 -4.39421 -759071 664476 -424107 -112428 -217522 -77253.1 13 10.9897
10 1 8.89438 1.70524 56.4505 -4.41872 306443 -288024 210053 511262 94966.7 -74600 15 11.1024
11 1 8.74193 56.535 1.68543 -4.39791 -198937 -149064 -645585 265165 592805 -997541 15 10.8965
12 1 7.09829 1.82805 1.71568 -4.42538 -288605 249482 599815 417255 -307338 -101846 14 11.1175
13 1 10.5692 0.0448449 -0.00338267 -4.36201 -1.30159e+06 -1.49905e+06 -52495.9 -433443 210935 -332357 13 10.5804
14 1 12.278 1.67018 -0.0387022 -4.40753 -379756 -204080 -462197 -337661 -52304.3 -193980 14 10.8304
15 1 12.3447 56.5033 1.79087 -4.40822 234576 -729090 -682350 119274 -114846 45682.6 13 10.8117
16 1 10.6129 1.6718 1.73891 -4.42119 -235473 -401488 -682076 335478 505539 -651078 14 10.75
17 1 14.1129 -0.0297288 56.4846 -4.40447 -374492 -305470 330835 470624 -387890 241703 13 10.9823
18 1 15.9359 1.70352 0.0083718 -4.41964 431432 713809 285341 45896.1 -648393 468574 14 11.2891
19 1 15.8954 -0.021685 1.68575 -4.41678 468768 -22548.2 128195 -593345 -146555 201589 12 11.1296
20 1 14.0445 1.73302 1.70649 -4.43338 287400 102320 92718.6 436211 -262696 423910 14 11.0667
21 1 17.7414 0.00268437 56.4712 -4.42746 429044 596869 738171 239454 21997.4 -615187 15 11.3564
22 1 19.4387 1.76005 56.494 -4.43269 78794 563632 62313.7 -393395 6215.8 -164852 14 11.109
23 1 19.4176 56.4912 1.69689 -4.43025 -477292 202176 77433.6 -336338 -195780 -176878 13 10.9743
24 1 17.6244 1.65362 1.71515 -4.37993 -81704.3 518115 -151731 -88462.3 -720906 104582 13 11.1671
25 1 21.2048 56.4526 56.5321 -4.42455 80130.8 -292702 227175 184964 122007 -7719.42 14 11.0257
26 1 22.9279 1.67493 56.4822 -4.40645 -84107.7 -256720 -140141 625258 39884.1 -853727 15 10.97
27 1 23.0209 0.0497289 1.80885 -4.38789 -495792 -880.424 -599500 48755.5 -450133 113901 14 10.8807
28 1 21.1381 1.62773 1.65871 -4.42606 301032 368022 395654 -131885 -123766 101985 14 11.236
29 1 24.7053 0.0161045 0.0419873 -4.41649 -154923 -349465 -348676 -61853.7 -335764 -406627 14 10.8529
30 1 26.4282 1.79005 56.5247 -4.42417 -683897 334849 -289571 -153219 -388133 -89332.4 14 10.8871
31 1 26.5712 56.4855 1.62899 -4.40278 -1037.86 389949 159097 -530210 289967 196812 14 11.1984
32 1 24.7285 1.8173 1.67518 -4.39633 -429146 -658860 -307222 -747717 272892 -305687 15 10.7943
33 1 28.1586 0.0308789 56.4501 -4.38677 -31979.8 24057.1 -213933 -179105 756561 -491349 14 11.0776
34 1 30.0547 1.72184 56.5017 -4.41481 430875 83709.5 -194083 216518 -646088 182611 14 11.1446
35 1 30.0318 0.143358 1.77415 -4.37866 413699 -182386 -251766 186159 366011 114235 14 11.1623
36 1 28.1712 1.68426 1.65914 -4.39076 37767.3 -714688 -179181 -180306 -15225.4 152979 14 10.9078
37 1 31.8851 0.0172443 56.5102 -4.40178 -311210 313561 208745 16456.6 -443866 -243973 14 11.1129
38 1 33.5592 1.77066 56.4601 -4.41416 -286169 282459 277459 -909208 536807 21728.7 14 11.107
39 1 33.5747 56.4836 1.65201 -4.43272 413841 357003 499107 277310 -429866 -414279 14 11.261
40 1 31.8765 1.73305 1.63609 -4.40731 364936 311664 117717 -239293 34306 72851 13 11.1944
41 1 35.49 56.4717 56.5346 -4.39475 159650 -706585 -404979 -170330 397989 380450 13 10.9283
42 1 37.1181 1.69754 56.4382 -4.39913 193935 -754818 -313251 -111999 290749 326628 13 10.9155
43 1 37.1904 0.106571 1.81829 -4.3906 -670789 -457253 -437554 124017 -477992 232664 15 10.7744
44 1 35.3737 1.71651 1.65774 -4.44877 141568 73031.5 761349 62009.7 170373 371285 15 11.2132
45 1 38.799 56.4864 56.5233 -4.42413 -15385.4 146556 208104 410893 -245994 355463 15 11.1222
46 1 40.6367 1.78665 56.5155 -4.45036 657288 538351 859493 136333 -174057 -103610 14 11.3747
47 1 40.6576 0.00872923 1.7339 -4.43488 181252 168042 372547 3891.68 578572 -377634 13 11.1053
48 1 38.9157 1.8161 1.80533 -4.41527 -5848.34 -11643.2 580708 -174025 199199 737926 13 11.1502
49 1 42.3849 0.0291637 -0.0079216 -4.43273 -214916 123777 539231 -417505 169950 33995.1 15 11.0539
50 1 44.1718 1.63461 56.5239 -4.41586 -694492 -55411.6 -8212.8 -302437 -202731 -91383.2 13 10.8854
51 1 44.2015 0.0472637 1.8224 -4.38302 -118733 -486536 -116115 -166998 -319125 459745 14 10.9685
52 1 42.4573 1.71123 1.77786 -4.40815 -381003 -282903 -172866 51663.4 -352421 31922.1 14 10.8742
53 1 45.9595 56.4375 56.4662 -4.42435 99895.4 -320387 -120048 34910.5 -271336 -163682 14 10.9339
54 1 47.7601 1.63559 0.0135296 -4.37823 -351630 -1.1893e+06 -1.11968e+06 -132387 524442 378137 14 10.6036
55 1 47.6473 0.0578397 1.71432 -4.39764 311859 -620565 -236436 708534 54747.3 469137 15 11.0092
56 1 45.9469 1.67102 1.68121 -4.37645 -905701 -1.28819e+06 16835.2 36365.4 -231229 631960 13 10.7269
57 1 49.5552 0.00672109 56.5321 -4.39329 -419090 -1.18085e+06 -433762 47272.2 7869.06 -450890 13 10.6775
58 1 51.2862 1.73424 56.5121 -4.41257 -226195 -597483 -773462 -212426 -238817 -323328 14 10.701
59 1 51.3056 0.00122551 1.79886 -4.39727 35246.3 -694798 -294331 106382 -364699 511255 14 10.8633
60 1 49.5391 1.7187 1.74086 -4.44547 16832.1 93385.2 -46397.9 54556.1 -323326 -268761 14 10.9589
61 1 53.0594 56.5231 56.4768 -4.44051 24612.9 215444 481971 545636 -263707 -163649 14 11.1026
62 1 54.7593 1.79386 56.4747 -4.37812 -774332 -435764 -1.46237e+06 146467 458114 -67610.1 16 10.6204
63 1 54.7982 -0.0137677 1.71325 -4.44578 197926 292476 38966.2 364877 -147815 134742 15 11.071
64 1 52.9977 1.7401 1.61122 -4.39425 -666659 -88764.3 577848 -978712 -94709.9 49485.1 15 11.0514
65 1 56.5118 3.55992 0.0409019 -4.37998 -160302 -1.191e+06 -667050 121589 -34264.3 -353274 15 10.712
66 1 1.62982 5.3414 56.5274 -4.40202 -436016 -150216 -445196 -269786 25302.7 342950 14 10.8867
67 1 1.73182 3.60915 1.72478 -4.37838 -781314 190534 -11144.7 -98368 58175.2 -288903 14 11.0226
68 1 56.5156 5.17284 1.70622 -4.37272 -235123 -483172 -1.08351e+06 607327 189592 -514517 14 10.7857
69 1 3.41075 3.5573 0.0154879 -4.42586 1.04918e+06 1.0873e+06 194816 859.808 751759 -605492 15 11.5041
70 1 5.36326 5.3445 -0.00890278 -4.39599 -267598 -589147 -69082.4 345167 -157884 -187688 15 10.8809
71 1 5.38958 3.51555 1.72023 -4.40617 347955 -27973.1 608096 679421 -322660 -295768 13 11.2524
72 1 3.56261 5.16858 1.78574 -4.39308 -38196.7 -606091 -130979 -170461 204771 -126657 13 10.8983
73 1 7.09988 3.56642 56.4047 -4.38678 -279179 312443 -118073 -75064.7 183030 194846 15 11.0908
74 1 8.83346 5.35311 56.5173 -4.39397 -801209 -483857 -428232 -610946 -281405 -14730.9 15 10.7405
75 1 8.93707 3.4668 1.76579 -4.37926 -663512 14860.1 -28061 -573073 -420252 110753 14 11.0244
76 1 7.11741 5.30599 1.65886 -4.4317 159419 470377 -499122 -480822 280583 207027 15 11.0148
77 1 10.5933 3.53345 -0.0142473 -4.43279 -387502 246533 -262915 -289163 67741.8 -360339 16 10.8926
78 1 12.3007 5.27799 -0.0237878 -4.41193 -542434 -421437 -475665 -230154 -204197 -585022 14 10.7455
79 1 12.3568 3.45128 1.69281 -4.43408 -682040 -51678.2 293558 -246841 -39793.2 -12847.3 16 10.9195
80 1 10.521 5.24719 1.67913 -4.39543 -651033 -961630 -314202 -526765 -197661 51053 14 10.7053
81 1 14.1203 3.56196 0.0582032 -4.41408 427953 292185 -382556 44774.8 288474 -410206 14 11.1022
82 1 15.8542 5.37237 0.0534659 -4.43214 787209 -201063 429121 -81779.2 22253.4 93486 14 11.1702
83 1 15.9474 3.58201 1.75351 -4.42737 707501 469524 -303375 2155.7 -131987 399240 14 11.1938
84 1 13.976 5.23598 1.72336 -4.36813 -222225 -952469 -979865 56982.2 5461.33 -693363 13 10.6933
85 1 17.6648 3.5862 56.5297 -4.42439 -94588.7 919400 138190 -156047 -300773 -187876 12 11.1817
86 1 19.4748 5.27326 56.4927 -4.41414 855808 18523 -132086 -399051 13891.5 639493 14 11.172
87 1 19.4727 3.58723 1.60062 -4.40719 641446 488622 105137 147357 -346092 374530 15 11.3438
88 1 17.7254 5.34366 1.78076 -4.42073 418649 126127 342153 -402706 249470 -233056 14 11.1624
89 1 21.2874 3.47117 56.5214 -4.41264 -209984 271434 169726 -84801.9 -24111.8 -177623 13 11.0866
90 1 22.8996 5.34323 56.5015 -4.42001 285906 152807 638043 680982 -369557 -91176.7 15 11.2364
91 1 22.9243 3.48079 1.68746 -4.4217 -184934 632374 -192106 592322 -108727 374996 15 11.106
92 1 21.2593 5.29954 1.84328 -4.41028 630755 -57489.1 127410 137670 177938 572319 14 11.1651
93 1 24.6301 3.61496 0.000318031 -4.42113 282175 199427 -248042 230550 -46106.6 -368270 14 11.061
94 1 26.503 5.29196 56.5201 -4.4243 -105995 87180 138603 303246 287067 -288425 12 11.0067
95 1 26.3421 3.54647 1.76215 -4.39525 -380871 -530995 27049.5 -64011 -114589 51540.4 14 10.8843
96 1 24.7334 5.29735 1.70367 -4.39484 -108804 -367337 263645 700426 48146.9 -173710 14 11.0517
97 1 28.2031 3.53038 0.0787492 -4.43068 410040 -328837 -146588 -22855.1 -122691 -239693 13 10.9513
98 1 30.0079 5.27591 0.0419704 -4.3823 -851112 -204685 -1.55032e+06 375246 179180 -432606 12 10.5997
99 1 29.9771 3.51644 1.82836 -4.42222 -91839.7 715620 451702 -152797 40465.5 677187 15 11.2441
100 1 28.259 5.27535 1.75833 -4.44536 239038 -217157 307684 299590 81536.8 -15011.5 15 11.0889
101 1 31.8127 3.55635 0.0161206 -4.42284 462095 -312233 -58232.6 47529.7 47654.4 573587 14 11.0323
102 1 33.5754 5.26257 0.0374128 -4.4235 359550 -256487 533716 -584598 -115076 346894 15 11.1465
103 1 33.6921 3.54855 1.75082 -4.41086 224118 119449 -373453 -297920 274137 252964 13 11.0699
104 1 31.6937 5.23875 1.79451 -4.39031 150136 -389092 70138.6 86246.5 -559268 284957 15 11.062
105 1 35.2745 3.46248 56.4644 -4.42678 -7257.65 214094 118474 -217366 772749 -67518.7 15 11.0935
106 1 37.1123 5.24511 -0.0107107 -4.42133 344208 59477.4 178434 673999 218717 -289226 14 11.1339
107 1 37.0856 3.46943 1.70499 -4.43476 353669 -8530.86 863418 450801 220922 703235 15 11.2445
108 1 35.4439 5.23082 1.76346 -4.39389 -183510 101393 95256.2 -251979 -147791 572633 14 11.0801
109 1 38.8693 3.54413 0.00238209 -4.41354 -459049 266116 -9418.91 214542 -377404 31670.9 13 10.9587
110 1 40.667 5.24151 56.5346 -4.4112 535449 -455941 -54101.3 44089.2 -135710 -619864 13 11.0361
111 1 40.7079 3.52239 1.68654 -4.43949 416069 336606 381236 -401934 -368861 -441.644 15 11.2315
112 1 38.8736 5.32434 1.73975 -4.40905 -435566 19811.4 -65215.9 -526915 88948.9 19579.9 14 10.9474
113 1 42.4764 3.42138 56.4808 -4.44571 393205 661678 653235 -136424 -151798 -449617 15 11.3354
114 1 44.2002 5.28412 56.4923 -4.43198 -180678 459579 -30800.5 251052 -68027.3 63319.8 14 11.0329
115 1 44.1755 3.46034 1.74037 -4.42373 -676779 155058 197627 -449504 -47217.3 153993 14 10.945
116 1 42.4855 5.27287 1.71135 -4.45314 358292 341561 399380 -165825 -126076 254211 15 11.139
117 1 45.9062 3.38729 0.0229396 -4.41414 -34035 -32764.6 -615717 -222093 428174 471389 15 10.9187
118 1 47.6305 5.24907 56.5301 -4.41601 461950 144204 -202166 219266 449178 244893 15 11.0998
119 1 47.697 3.43341 1.66291 -4.41991 356577 146067 -349404 -72152.9 23610 391471 14 11.1273
120 1 45.8446 5.19337 1.71245 -4.4157 -254270 10926.1 -289370 -230278 25963 -31393 13 10.9209
121 1 49.4012 3.39943 56.4757 -4.3785 -312694 -322281 -937311 -199524 756859 384020 15 10.81
122 1 51.3022 5.28286 56.4443 -4.39752 -721325 -162326 -401680 218799 251478 -383437 15 10.814
123 1 51.2319 3.53382 1.63712 -4.43417 345183 -474822 989238 376497 10594 -61266.1 14 11.1419
124 1 49.6337 5.26181 1.66374 -4.40044 513030 426017 693481 701285 28503.2 153464 14 11.425
125 1 53.0416 3.51122 56.3635 -4.34268 -858387 -1.75062e+06 -1.33183e+06 147372 -438158 -190617 14 10.4414
126 1 54.7655 5.23413 0.0177581 -4.41877 -718032 -108843 -292978 -38420.1 -163780 53235.4 16 10.839
127 1 54.6353 3.40536 1.63681 -4.37701 -573454 -1.01217e+06 -421927 -145823 193683 -202322 14 10.7606
128 1 53.0316 5.21667 1.69175 -4.43918 -271138 138190 545737 -188950 286326 243216 16 11.0393
129 1 56.4415 7.069 -0.0259163 -4.41732 19243.5 154127 374235 369474 -112124 -518654 14 11.1236
130 1 1.81877 8.71172 56.4985 -4.41928 978323 194398 248486 -99143.5 -117193 118355 14 11.2876
131 1 1.77296 6.92334 1.79742 -4.43557 685018 268239 137994 218451 219507 106403 15 11.2172
132 1 0.0495371 8.70708 1.73124 -4.43268 941068 525763 225245 118878 -9046.63 -415079 14 11.2949
133 1 3.52943 6.90537 0.0212354 -4.38765 -545212 118930 -44037.1 257971 -450855 -489823 14 10.9888
134 1 5.20846 8.8203 56.5232 -4.44143 772539 281739 333261 123068 18401.4 628338 14 11.2253
135 1 5.23503 7.11733 1.65245 -4.39109 -159567 13884.4 -862082 -122575 26046.4 -18289.9 15 10.8641
136 1 3.47784 8.86379 1.75214 -4.42009 -73145.9 13816.6 126389 630090 111647 -56618.8 15 11.018
137 1 7.05298 7.06014 56.5477 -4.4378 -271121 -415890 336754 -636976 228427 223425 16 10.9399
138 1 8.78072 8.76185 56.4426 -4.40856 360557 -597824 132186 59326.8 70646.4 322875 15 11.0462
139 1 8.90882 7.04832 1.76866 -4.42869 -238553 310620 -127299 -3827.54 689255 -430672 15 10.9968
140 1 7.01911 8.83095 1.7706 -4.43238 689793 61010.2 414926 -260841 -13804.6 329024 12 11.2276
141 1 10.5134 7.00055 -0.0155206 -4.39536 -746225 -129470 -263332 -337962 -137863 235247 14 10.8946
142 1 12.2762 8.82819 56.516 -4.43503 546347 516445 368442 257732 -64981.9 -323919 13 11.2883
143 1 12.255 6.94949 1.70418 -4.40849 -63988.1 -514414 -620540 283269 -346871 -148171 14 10.8165
144 1 10.6251 8.83013 1.77003 -4.40186 -318870 -475297 278171 -163083 253686 -613631 14 10.9656
145 1 14.0202 7.03408 56.4558 -4.44784 218598 406886 644410 -52916.9 -197454 -213444 13 11.1941
146 1 15.8703 8.74944 56.549 -4.41199 57548.3 -620032 -394541 347639 303949 223167 13 10.8442
147 1 15.7582 7.11971 1.70636 -4.41175 660612 -405082 -957417 2008.13 288287 119431 13 10.9098
148 1 14.0273 8.86264 1.68065 -4.39894 -663193 -347648 355611 124135 143416 -147342 14 10.9529
149 1 17.6182 7.10326 -0.00337069 -4.41761 75469.5 -328053 53065.9 54507.4 -184528 248046 13 11.0154
150 1 19.4117 8.81747 0.0128717 -4.41197 -317118 5822.24 123088 270140 -210291 94365.5 13 11.0334
151 1 19.4462 7.06484 1.75601 -4.43263 122657 817255 978310 -388500 211439 307871 15 11.3783
152 1 17.615 8.79183 1.82199 -4.43104 246466 2139.72 505420 225543 402717 308369 14 11.1288
153 1 21.2352 7.06904 0.0917803 -4.4163 270936 53484.7 723357 301948 222457 101377 14 11.2061
154 1 23.0668 8.75639 0.0462812 -4.39064 -455043 150712 39329.2 -50773.2 -521174 374586 14 11.0444
155 1 23.1167 7.13014 1.80004 -4.39105 85229.7 -117515 -448554 65412.1 -306207 360879 13 11.0085
156 1 21.1983 8.82381 1.83128 -4.42363 801729 -116615 208761 93063.1 -197533 276372 12 11.1623
157 1 24.8364 7.09846 0.0473058 -4.42528 318277 108741 404890 631879 128732 -72148.7 16 11.2028
158 1 26.6745 8.80321 0.153739 -4.36281 -405036 -278085 370654 -109766 -21486.9 36178.6 14 11.1693
159 1 26.4958 7.03493 1.86504 -4.40768 -718152 183815 -638526 -92460.9 -517959 372429 15 10.8789
160 1 24.8051 8.90677 1.66713 -4.38661 -545766 -259630 -911574 -304585 -367341 315543 14 10.7379
161 1 28.2852 7.03423 56.5329 -4.41012 -112023 -523757 288309 346027 103457 -557299 13 10.9779
162 1 29.9778 8.83449 0.132756 -4.41853 -367580 49215.6 -638661 -305350 -65237.2 -110168 14 10.8984
163 1 30.0296 6.97298 1.75024 -4.43286 344286 -401869 331462 434034 -302272 -120199 15 11.0464
164 1 28.3321 8.79092 1.83368 -4.3798 -981987 855975 -1.14828e+06 53575.8 -177608 298512 13 10.874
165 1 31.8271 7.12594 -0.026483 -4.41632 -344082 426830 15283.9 -389865 -719245 -71993 15 11.0409
166 1 33.591 8.72708 56.5058 -4.43025 181980 404714 857524 -712932 -381842 194603 14 11.2946
167 1 33.4773 7.04859 1.75233 -4.42889 866608 656591 -426843 -278529 -289791 -250280 13 11.2632
168 1 31.7252 8.94467 1.74513 -4.334 -1.06625e+06 -486974 -1.16742e+06 649101 140157 472777 15 10.7551
169 1 35.3116 6.90537 0.0106861 -4.41462 86631.5 164551 834661 -87512.2 -191481 140614 16 11.2478
170 1 37.1092 8.7267 56.4586 -4.37592 542340 502305 -466476 -96217.1 -485529 -326407 15 11.2656
171 1 37.1368 7.07671 1.70285 -4.42225 544230 -462288 116391 -103448 -272528 213557 15 11.0227
172 1 35.3181 8.81387 1.6902 -4.43393 515227 671138 904256 -65867.7 -326295 217320 13 11.3614
173 1 38.9983 7.01037 56.5109 -4.39939 -314069 72510 -625170 164147 -459617 148908 14 10.8959
174 1 40.5941 8.89335 56.5255 -4.34667 -906633 -317045 -198168 -862440 -391600 187973 13 10.924
175 1 40.5704 6.94591 1.68606 -4.35815 -963636 -432409 -233916 -668398 -796645 -99553.9 14 10.8337
176 1 38.9298 8.75687 1.69943 -4.44101 623862 532938 491539 38616.4 440530 243164 15 11.3315
177 1 42.4613 6.99566 56.5021 -4.43652 485872 203059 352703 -301673 -225581 19921.1 15 11.2109
178 1 44.142 8.76753 56.5427 -4.38865 73284.8 -126158 1.40935e+06 99496.5 -133720 233697 14 11.3507
179 1 44.2062 7.05117 1.6851 -4.41981 324965 -55272.3 -197701 -60285.2 127625 105535 14 11.0258
180 1 42.2321 8.73165 1.83495 -4.37652 796327 243427 -115315 -148246 343556 822174 14 11.3373
181 1 45.9419 7.06232 -0.010418 -4.41887 -243304 948502 297107 394721 257458 321539 15 11.2144
182 1 47.8431 8.85489 56.4643 -4.37453 323835 84641.3 -290673 -371892 530954 -247353 14 11.1746
183 1 47.6976 6.99811 1.68989 -4.41561 695155 759268 367400 151635 172268 261300 15 11.3892
184 1 46.0197 8.80574 1.8839 -4.34974 201704 -983298 -222135 -444780 184578 -104948 15 11.062
185 1 49.5591 6.99901 56.5316 -4.42127 290512 -428765 208656 -93099.9 89154.7 167469 14 11.0091
186 1 51.1634 8.77631 56.4994 -4.42944 -320939 -530071 268413 -15907.4 5549.43 204800 15 10.8867
187 1 51.3304 7.09295 1.72285 -4.4147 -357916 -246223 17597.1 -787608 -88143.5 -57716.2 14 10.9372
188 1 49.4786 8.78347 1.81887 -4.44825 304453 679507 319506 113595 299712 237298 14 11.1838
189 1 52.9628 7.05849 56.464 -4.40164 -160871 -619855 -647972 -449531 680841 386071 16 10.7842
190 1 54.7202 8.76654 0.0308489 -4.39221 -287616 -958875 89291.1 527422 -83505.1 -708683 13 10.8425
191 1 54.7103 6.96257 1.72775 -4.41891 475421 -628000 -344696 -108283 173999 -396630 14 10.8981
192 1 52.9991 8.75106 1.78418 -4.39062 -1.04798e+06 -435714 -49701.1 -546027 291570 88505.6 12 10.7691
193 1 56.523 10.527 -0.0397823 -4.43614 642146 1.31573e+06 316718 107111 807835 -10676.9 14 11.4652
194 1 1.84228 12.397 56.5409 -4.41595 283194 445164 733146 -84805.3 -122995 565794 15 11.3491
195 1 1.80092 10.563 1.68329 -4.43087 -50477.7 391714 762089 421240 -18365.5 103555 15 11.1863
196 1 0.0143581 12.3506 1.7376 -4.39839 615041 -335121 3049.62 204868 -253673 923822 14 11.1381
197 1 3.47008 10.5577 56.451 -4.41646 -35806 43243.1 511156 132143 199207 -88730.8 13 11.1289
198 1 5.18881 12.3703 56.4276 -4.40667 -452802 614391 -271151 274498 490395 -11422.5 14 11.0801
199 1 5.26693 10.5999 1.85247 -4.38272 -579659 -235462 590830 257895 603022 -285642 16 11.0728
200 1 3.6002 12.2746 1.63294 -4.3944 -500320 -435561 -447800 -101669 -59528.7 305704 14 10.8347
201 1 7.0346 10.5334 -0.00491224 -4.42905 319887 273239 105243 -273242 166078 223491 13 11.1236
202 1 8.70992 12.3362 0.133114 -4.3761 12303.7 257319 182213 -23222.5 101536 -216413 14 11.2339
203 1 8.85872 10.497 1.6946 -4.42551 197968 248016 387921 -276466 -114646 327354 15 11.181
204 1 6.92215 12.3702 1.69958 -4.41316 -150681 267980 813235 -470760 704293 -69869.9 14 11.2311
205 1 10.548 10.5915 56.4035 -4.41785 203124 571361 127050 248412 -144226 260932 14 11.2145
206 1 12.4099 12.4172 0.0684244 -4.40901 290536 590956 162835 265309 191891 349086 15 11.273
207 1 12.3062 10.5237 1.65589 -4.37974 -1.01608e+06 -1.1626e+06 -155957 9764.31 -143460 -457777 13 10.6372
208 1 10.5817 12.2362 1.76984 -4.41598 -244026 668127 228218 -74027.6 -407016 309825 14 11.192
209 1 14.1352 10.5633 56.4728 -4.40401 -88039.3 -542410 -421404 -224151 307099 549188 13 10.895
210 1 15.8206 12.2795 -0.0175057 -4.39873 307255 -308399 -410529 -263289 -126229 -1.20281e+06 13 11.0214
211 1 15.8116 10.3925 1.7705 -4.41286 -153322 -163630 604510 -88314.7 83892.1 -170781 13 11.1373
212 1 14.0798 12.2089 1.79029 -4.38842 -260599 -209655 -787025 -318052 -297762 638418 15 10.8901
213 1 17.6778 10.4668 -0.0245417 -4.41434 10357.9 -70781.8 -7401.58 218209 -252941 -487680 14 11.0195
214 1 19.4232 12.2684 0.0375961 -4.44359 680986 227347 734536 -189289 286930 255802 14 11.2921
215 1 19.4082 10.5262 1.77216 -4.41863 71930.7 517466 151853 385020 173979 75987.6 13 11.145
216 1 17.6192 12.2378 1.77025 -4.42873 729334 624141 780985 698168 157861 286455 13 11.4042
217 1 21.2763 10.5585 0.16256 -4.42066 675481 347594 236660 -64437.2 211229 190478 15 11.2628
218 1 23.0275 12.3418 56.5171 -4.45806 430385 250419 449040 -414348 -68354.5 132072 15 11.1943
219 1 23.0021 10.6778 1.87797 -4.36605 -174960 -258249 -793949 96430.6 -957085 -543749 14 10.9794
220 1 21.2442 12.3909 1.78472 -4.41283 -298983 -371214 14222.2 71084.9 -595346 -11691.1 14 10.9122
221 1 24.7553 10.5391 56.4832 -4.41846 984430 -187281 -16895.3 -249246 48350.4 375647 16 11.1856
222 1 26.4961 12.3706 56.508 -4.42858 503088 179689 381805 330680 190942 376715 14 11.199
223 1 26.5893 10.6749 1.70301 -4.38525 99198.8 -260158 -129740 -104862 596606 349708 13 11.0763
224 1 24.8109 12.3511 1.7545 -4.44171 302929 509592 883025 -308438 406282 95493.2 14 11.3068
225 1 28.2231 10.6357 -0.00473013 -4.39891 -129869 240615 77415.7 -17888.2 656606 -109249 14 11.1088
226 1 30.1383 12.4534 0.00940394 -4.42875 252229 369255 -106331 240351 92116.8 353289 14 11.0866
227 1 30.1083 10.6319 1.79783 -4.35536 -860626 -1.34916e+06 -555428 811057 335722 -140902 14 10.6809
228 1 28.3711 12.3392 1.76744 -4.43714 435607 455906 753252 -163747 130089 -143541 13 11.3038
229 1 31.7402 10.577 0.0692813 -4.38313 -248443 -597369 -1.19242e+06 -299507 2239.25 521211 15 10.7024
230 1 33.4876 12.3211 0.00920749 -4.40518 -554164 52912.9 -806251 234728 351933 -99130.1 14 10.8149
231 1 33.5829 10.6045 1.7304 -4.44919 212218 355303 320887 -124829 142032 328500 15 11.1147
232 1 31.7969 12.3861 1.77324 -4.42076 -515833 122692 -477268 -528906 78291.4 145145 14 10.8517
233 1 35.2233 10.6123 56.4546 -4.36121 196414 -528036 -607402 64823.6 -74605.4 56531.5 14 10.9948
234 1 37.0853 12.3742 0.0547378 -4.4291 497704 765345 458191 -65823.8 506794 -310628 13 11.3213
235 1 37.0406 10.5609 1.79798 -4.42449 899042 651558 957677 -73131.1 624950 186913 15 11.5427
236 1 35.3402 12.3461 1.71356 -4.42674 -628960 273027 13195.6 -59761.9 194401 111970 13 10.9192
237 1 38.8394 10.574 0.00574507 -4.42954 751949 392835 531252 586267 -222078 -83500.5 12 11.3125
238 1 40.7147 12.4558 -0.0169057 -4.39326 281983 166714 -414636 34396.8 30913 187090 14 11.0944
239 1 40.6353 10.6962 1.76549 -4.38282 -474544 -329172 805543 525135 115106 -117107 13 11.1253
240 1 38.9633 12.2927 1.77648 -4.38437 -10405.3 -715408 171189 779644 -242023 -283749 14 11.0408
241 1 42.3919 10.3898 56.4574 -4.37177 -199986 215963 1.04488e+06 -359415 -256575 89765.9 15 11.3661
242 1 44.1423 12.2328 56.4712 -4.40416 283170 464043 -46613.4 296630 392220 -171203 15 11.2533
243 1 44.133 10.5067 1.90502 -4.41837 539284 363678 796515 236788 279619 185531 14 11.4724
244 1 42.4456 12.2931 1.73168 -4.43307 -35731.1 558495 998953 -357475 -58665.4 197583 13 11.2921
245 1 45.8392 10.5085 -0.0101206 -4.44114 279565 373647 940725 -210803 -416202 -91052.6 15 11.2981
246 1 47.6128 12.2426 56.4589 -4.42446 87720.3 -281637 62820.6 144345 -87208.2 -162908 15 11.0009
247 1 47.6659 10.4917 1.65121 -4.37747 -799017 -664716 287710 -136793 452159 42557.7 14 10.8871
248 1 45.9972 12.1965 1.8723 -4.41198 153434 -303962 153551 192840 285696 339191 15 11.0856
249 1 49.5252 10.536 0.0401279 -4.38706 -902484 -705467 -269767 -452761 282418 75889.4 13 10.7113
250 1 51.2132 12.2993 0.0104019 -4.43515 426588 -117367 189197 -476161 -117080 90962 13 11.0891
251 1 51.2755 10.5449 1.75388 -4.45788 336419 655947 504647 -196298 -20259.3 236853 16 11.2956
252 1 49.3576 12.2862 1.76479 -4.44147 750096 50830.4 694386 -118311 422643 78618 14 11.2749
253 1 53.0118 10.464 56.496 -4.44171 294567 364342 329895 294663 -216741 -37655.9 15 11.1831
254 1 54.745 12.3425 56.4575 -4.39833 23964.4 336360 -310940 -1920.45 499275 229774 14 11.0794
255 1 54.7288 10.5069 1.67063 -4.39928 261237 578485 296853 79168.9 -487103 -326479 14 11.3093
256 1 53.0332 12.2599 1.7701 -4.42415 -42784.4 818499 1.12114e+06 -278365 114890 -168201 13 11.3676
257 1 56.537 14.0974 0.128921 -4.38485 -80192.2 -617943 -585019 -230358 347608 419025 13 10.8069
258 1 1.7637 15.7523 0.0351875 -4.40858 -714432 253567 -118129 141088 -456836 109234 14 10.9256
259 1 1.7228 14.137 1.91577 -4.33844 143111 -1.42419e+06 -943218 -729358 -163240 624816 13 10.7843
260 1 56.519 15.894 1.73361 -4.43126 785420 -352381 27296.3 303630 119715 -252741 13 11.1234
261 1 3.48973 14.1063 0.00519391 -4.39031 -715735 -1.08211e+06 750610 -44618.6 -299827 -28611.3 13 10.8657
262 1 5.14785 15.892 -0.00453747 -4.41772 608749 -436401 198369 226553 90615.1 -65925.5 13 11.0687
263 1 5.22917 14.093 1.73975 -4.42054 -189114 181117 444052 179184 289227 -144900 14 11.0834
264 1 3.44687 15.8139 1.80868 -4.41184 -327802 50221.8 -227445 -294765 321711 -247080 12 10.9394
265 1 7.03659 14.1968 56.5115 -4.39971 290564 -275815 349511 -576478 -279101 -22348.5 13 11.1393
266 1 8.75685 15.7979 -0.00990549 -4.40759 118717 691128 1.13122e+06 -437199 -166102 -209322 14 11.4442
267 1 8.70397 14.0338 1.83474 -4.38523 1.22733e+06 -395755 -132807 -214908 -124455 -672176 14 11.2427
268 1 7.003 15.898 1.74407 -4.39849 182344 88599.1 -590246 73018.6 366269 -748452 12 11.0268
269 1 10.5822 14.076 56.527 -4.42585 1.14388e+06 674910 1.17057e+06 371162 141227 -241769 14 11.6377
270 1 12.4166 15.88 56.4942 -4.41053 -234993 533089 588486 314597 -617096 -440765 15 11.2168
271 1 12.3419 14.0563 1.88534 -4.37596 47127.9 203244 91869.4 -341211 -102561 -348319 13 11.2277
272 1 10.5675 15.8877 1.71597 -4.44099 1.0587e+06 918534 1.02949e+06 401732 85789 101107 14 11.55
273 1 14.1948 14.1247 56.4475 -4.36131 -585743 -765383 -357840 -280926 -547611 -421135 14 10.8297
274 1 15.9104 15.7901 0.0273018 -4.41254 -123287 94240.2 308503 -109180 56162.2 -355510 14 11.151
275 1 15.8654 13.9314 1.64252 -4.38385 236532 -87212.9 -314022 408667 56793.1 -388804 13 11.0634
276 1 14.0979 15.7345 1.68499 -4.41145 -381788 56374.6 -576663 -449296 -34258.6 -256274 13 10.8474
277 1 17.6624 14.0829 -0.00412529 -4.4252 -46074.2 842316 280508 294833 828224 99812.4 15 11.2111
278 1 19.4284 15.8864 56.4726 -4.4256 16495.4 -54188 395744 -77942.2 -50356.7 -167739 13 11.1174
279 1 19.4379 14.0917 1.7702 -4.42897 57652 715899 221265 -107063 470526 -58240.3 13 11.1647
280 1 17.6571 15.9594 1.75618 -4.40634 235031 242856 337779 -222492 -76563.7 -379029 14 11.228
281 1 21.1062 14.0758 0.00518821 -4.43267 346755 -31610.7 147006 -234022 86449 -156486 14 11.0967
282 1 22.995 15.683 -0.0251575 -4.39091 -177728 -221610 277821 624051 21959.8 244515 14 11.0503
283 1 22.9023 14.1077 1.76456 -4.39596 -82369 -776381 -48598.5 -19393 -11683.5 738663 15 10.9041
284 1 21.2086 15.7637 1.76315 -4.4031 -190111 -447504 -219162 -23623.1 149662 146695 13 10.8946
285 1 24.7255 14.1303 56.4818 -4.39979 -579721 -250522 818095 566234 -287491 50334.1 14 11.0318
286 1 26.4724 15.8784 56.4437 -4.45077 743079 389441 884342 102625 95317 -213969 15 11.3278
287 1 26.5085 14.1176 1.69149 -4.42785 78850.5 168930 586361 -248973 343344 229571 13 11.1555
288 1 24.7668 15.8121 1.77472 -4.43174 517922 96948.7 341656 459856 -150298 251431 15 11.1785
289 1 28.289 14.1588 56.5533 -4.4259 -68111.9 96390.3 307591 -308214 341879 -147026 12 11.0975
290 1 29.9525 15.8705 56.4929 -4.40206 -9060.24 -8870.27 58982.2 -232154 -477272 -622804 15 11.0836
291 1 30.0218 14.2757 1.81855 -4.3844 -844732 -231102 -230947 43594.9 204653 -170757 13 10.8509
292 1 28.2599 15.8471 1.77846 -4.39259 -109745 -478423 53592.5 515147 170452 240579 14 10.9714
293 1 31.8214 14.2576 0.0149759 -4.43182 -171936 635253 273321 -223143 -121612 -179788 14 11.1136
294 1 33.584 15.9879 -0.0357408 -4.41029 -308620 -1.25796e+06 481138 352123 155040 -661571 14 10.9449
295 1 33.5562 14.0924 1.75 -4.42694 -81536.7 464204 -104635 -404283 -489977 40945.3 14 11.0498
296 1 31.7303 15.9517 1.78404 -4.34156 -1.06479e+06 -978527 -342352 -215934 761642 -241141 13 10.7401
297 1 35.2791 14.2181 0.0192837 -4.42358 673724 -76597.2 -119312 136765 -73207.1 39468.1 15 11.1052
298 1 37.0972 15.9362 0.0662697 -4.39754 60906.5 -417451 -444259 -611150 -494840 180007 13 10.9161
299 1 37.0741 14.1209 1.78394 -4.43191 349602 -81027.3 144867 -539433 -321417 170078 14 11.0605
300 1 35.2952 15.8942 1.82341 -4.42829 96285.3 -459721 -318020 -140943 -9098.94 -76958.4 14 10.8541
301 1 38.9032 14.0911 56.547 -4.4194 58970.1 203489 -20563.3 -18979.9 -498689 -539215 13 11.0649
302 1 40.5743 15.9349 -0.00380111 -4.43733 344170 459639 696703 52943.6 -194847 107112 15 11.3017
303 1 40.6654 14.1157 1.70807 -4.42579 418773 40607.2 -251430 -400369 228909 -193875 13 11.0295
304 1 38.7765 15.8574 1.78046 -4.40748 95763.8 -322560 -17661.3 -56943.8 -187248 316065 14 10.9925
305 1 42.45 14.166 -0.0208028 -4.392 -384896 61953.8 -444003 -739365 490117 209669 13 10.9526
306 1 44.2805 15.751 56.4723 -4.33044 263502 -368680 -395561 -203772 385956 -1.02514e+06 14 11.2005
307 1 44.1959 14.0506 1.74002 -4.43449 -38263.4 109479 -120547 -453468 292470 341216 14 11.0033