ITEM: TIMESTEP
5000
ITEM: NUMBER OF ATOMS
16372
ITEM: BOX BOUNDS pp pp pp
0.0000000000000000e+00 5.6512000000000000e+01
0.0000000000000000e+00 5.6512000000000000e+01
0.0000000000000000e+00 5.6512000000000000e+01
ITEM: ATOMS id type x y z c_peatom c_satom[1] c_satom[2] c_satom[3] c_satom[4] c_satom[5] c_satom[6] c_coord c_voro[1] c_keatom
1 1 0.00759795 0.0113133 0.00494751 -4.39869 -404640 -669167 -58412.6 360776 -629203 -78518.3 14 10.8301 0.00802439
2 1 1.78491 1.67331 0.046385 -4.43316 577713 412386 576660 215665 -56225.6 886.492 14 11.3065 0.0190085
3 1 1.72269 0.010427 1.9273 -4.4187 198135 -455473 44525.9 -33663.7 235712 233669 14 10.9581 0.0128479
4 1 56.4987 1.76134 1.77686 -4.44176 373621 539247 261857 61673.5 216853 62626.6 13 11.2123 0.0647854
5 1 3.48094 56.4755 56.5079 -4.41204 -114828 -74648.8 293380 323553 -558006 49879.2 14 11.0326 0.0175554
6 1 5.17791 1.8719 56.5002 -4.38805 305765 290148 -504819 309622 -172076 353655 14 11.1282 0.0304245
7 1 5.2578 0.0823814 1.78205 -4.41805 -150749 535183 545082 329138 -385736 -176345 13 11.1859 0.0282647
8 1 3.51635 1.75628 1.84303 -4.41617 -33318.8 98670.2 729282 270122 11766.5 -510942 14 11.1659 0.0296899
9 1 6.99067 56.4624 0.0254216 -4.42239 708926 -5684.05 172035 -659608 -11792.2 167623 14 11.2689 0.146047
10 1 8.86574 1.78219 56.4521 -4.41931 52497.7 -261488 -497739 19905.6 207269 230530 15 10.8628 0.00847694
11 1 8.82779 0.0985685 1.72027 -4.40941 -304700 80885.2 -371774 39563.4 571390 -424565 14 10.9454 0.0859885
12 1 7.07604 1.8805 1.65948 -4.43501 102932 273008 759171 -262038 -336521 372737 14 11.2377 0.0294865
13 1 10.5993 0.0443965 56.5091 -4.3904 12757.6 -860041 -12735.1 -651136 204529 289659 14 10.9159 0.0270405
14 1 12.3074 1.67754 56.4936 -4.37391 562051 3827.21 316880 -166473 305123 206316 15 11.3945 0.0142545
15 1 12.5567 0.0117865 1.72499 -4.41301 897244 270753 -31928.3 -15625.1 213492 206356 14 11.2612 0.0278613
16 1 10.6207 1.78402 1.70364 -4.41411 88117.2 -123169 -369271 -405949 398788 143147 13 10.9806 0.0782914
17 1 14.2542 56.4168 0.00782125 -4.39845 -321114 565393 37356.9 88881.1 385452 144959 15 11.1267 0.0176641
18 1 15.8951 1.78244 0.0354309 -4.41428 -88551.7 469199 -326263 -359261 471802 -246041 13 11.0472 0.0347512
19 1 15.9599 56.4307 1.78088 -4.45008 -53171.3 223956 -96794.9 -363068 -459018 -16735.5 15 10.9958 0.0836895
20 1 14.2551 1.81361 1.82438 -4.39341 -282444 244845 283566 -593286 510361 -328787 14 11.1634 0.0255677
21 1 17.7339 56.4924 56.5003 -4.42732 -28289 -110515 -339544 -223852 471944 47417.7 15 10.9312 0.0492013
22 1 19.414 1.75222 56.5126 -4.42545 -443119 -504297 -146028 114184 -214878 -325362 14 10.8019 0.0698328
23 1 19.4339 0.0293781 1.80535 -4.37946 -687723 -1.78793e+06 -441166 63784.2 -270192 -72121.1 15 10.5411 0.0147751
24 1 17.6544 1.71904 1.71129 -4.45001 -127793 -87184.8 -293052 21007.3 227200 -2455.99 16 10.8429 0.0184162
25 1 21.2077 0.10093 56.4986 -4.44064 -606990 -117882 -11691.7 -38530 -211562 41926.3 15 10.8298 0.0526125
26 1 22.9428 1.8852 56.4461 -4.39462 166357 -579578 -704311 135929 -329356 393137 13 10.869 0.0130032
27 1 22.9864 0.0808182 1.67997 -4.35503 -1.41207e+06 -925089 -764342 -840879 128052 -809920 14 10.6165 0.10093
28 1 21.2078 1.81668 1.78224 -4.43624 524325 -390081 -94785.2 391023 198451 9162.33 14 10.977 0.0370174
29 1 24.7641 56.4797 0.0526507 -4.40389 -422469 -280600 -3882.82 -453221 421185 -701640 15 10.9565 0.0352499
30 1 26.455 1.74303 56.4474 -4.45349 447628 215561 878677 187329 160525 294792 13 11.2589 0.026591
31 1 26.5392 0.0152155 1.74831 -4.39256 -1.01421e+06 -174717 -1.11104e+06 240390 147937 -255404 12 10.6074 0.0153469
32 1 24.6573 1.69344 1.73 -4.35087 -267779 -964595 -739690 -456537 77650.9 120936 13 10.8187 0.0343698
33 1 28.1964 0.0157675 0.052006 -4.42696 -336459 78418.1 -120008 -61726.1 301166 425198 15 10.9527 0.0378559
34 1 29.9674 1.74606 0.0147863 -4.40169 -164121 -815609 -537026 238829 393347 398071 13 10.7499 0.0272002
35 1 30.0826 0.0674239 1.72447 -4.396 -677619 -653767 -813654 -285547 226975 456202 12 10.6852 0.100109
36 1 28.2633 1.83497 1.7277 -4.42947 106834 13665 -714767 -302986 298557 300272 14 10.9258 0.0887062
37 1 31.7078 0.0201353 56.4717 -4.40974 -78733.1 181194 541758 -248706 367775 123960 14 11.1768 0.0270383
38 1 33.5947 1.75676 56.5137 -4.40522 1.59298e+06 218849 389043 305795 112207 -174572 15 11.5244 0.0342039
39 1 33.5869 0.092532 1.68862 -4.41861 483164 134768 -24386.7 142835 181043 177806 14 11.1585 0.0694478
40 1 31.7335 1.79953 1.79758 -4.40106 -618750 -352680 295389 -674281 -346073 144067 14 10.9232 0.0180465
41 1 35.4295 0.0646505 56.4348 -4.40586 -407956 709490 126592 172929 17198.3 194194 13 11.1743 0.10764
42 1 37.1676 1.80301 56.441 -4.4017 378573 84820 -385377 -442042 -89027.9 310791 13 11.1291 0.0531538
43 1 37.0689 0.0830084 1.67688 -4.42472 -448861 45233 231405 -124509 -297428 47898 16 10.9756 0.0382042
44 1 35.3517 1.80491 1.86358 -4.40014 -131797 -81852.7 662043 -147015 24534.7 92499.6 16 11.1983 0.0323526
45 1 38.8728 56.4725 56.5096 -4.42655 -608913 -162507 -337342 -294001 177842 -156271 14 10.775 0.0478121
46 1 40.6251 1.63884 56.4302 -4.4074 173388 198500 -60456.5 -289191 283216 -293206 16 11.1084 0.00934944
47 1 40.5381 0.0112246 1.78107 -4.43369 -228386 -158511 -126546 128761 -305995 460558 13 10.9203 0.10626
48 1 38.8323 1.80079 1.66363 -4.42333 -275366 713.457 211663 -57272.1 3209.77 -213664 16 10.9797 0.00810993
49 1 42.4289 56.4775 0.0999723 -4.39065 -701.098 -490515 500435 -675389 -356595 381653 14 11.1203 0.0232707
50 1 44.0232 1.66729 56.4709 -4.40071 -45350.7 -390401 186424 -213383 102598 43888.6 14 11.0435 0.0588894
51 1 44.1578 56.4736 1.78773 -4.39861 -496092 305325 -1.15582e+06 112201 257795 223193 13 10.802 0.0382499
52 1 42.3215 1.79409 1.7357 -4.39901 72691.8 -838835 -533926 -397209 19622.5 -296494 13 10.8501 0.111379
53 1 45.7755 56.4413 0.078151 -4.36239 -868532 -172961 -1.35649e+06 171516 -385722 848230 15 10.7084 0.0489419
54 1 47.6203 1.70989 0.0139607 -4.42266 112248 203304 -169102 436935 342233 363790 14 11.0321 0.0525173
55 1 47.5631 56.4672 1.68641 -4.39438 -313555 -501359 325992 -402220 -127893 305176 15 10.9908 0.0152325
56 1 45.8962 1.8115 1.74595 -4.43239 -7547.61 501967 2015.85 41802.4 63577.8 -127576 13 11.0777 0.0347156
57 1 49.4649 56.5122 0.0560373 -4.43088 619707 -31922.2 -64217.7 304622 -8385.31 -2340.78 14 11.0841 0.0307771
58 1 51.2901 1.82339 0.0549771 -4.3971 -282162 -197002 -265803 -454771 -562397 368819 14 10.9329 0.00755379
59 1 51.1843 0.0699415 1.8004 -4.39809 -873982 -60397.5 -44270.6 -1878.27 -436480 -182899 15 10.9337 0.0664787
60 1 49.4527 1.68444 1.79033 -4.42822 187209 -181730 -25524.5 798262 -253531 -269269 16 11.0143 0.0340135
61 1 53.0087 56.4342 0.0748025 -4.41706 -227821 -41869.2 -472494 -263566 130381 -423260 14 10.8798 0.0174778
62 1 54.7503 1.69655 0.02585 -4.40979 -212596 -43329 -238078 54718.2 -236337 -831408 14 10.9664 0.0427473
63 1 54.7465 56.4851 1.90694 -4.41 -824306 -494763 -74321.6 280030 -103125 -265366 15 10.7896 0.0381772
64 1 52.979 1.65443 1.7094 -4.36153 -661085 -736028 -826170 -236436 -422314 424440 14 10.7503 0.0383644
65 1 56.4569 3.54111 0.0636557 -4.41218 91602.8 824955 52908.9 41641.2 398558 -1135.17 12 11.2371 0.0736803
66 1 1.65782 5.41679 56.4743 -4.42685 498271 700122 413777 229710 -82179.2 -54801.5 14 11.336 0.0418326
67 1 1.83807 3.55914 1.74122 -4.40018 165827 68673.3 1.01398e+06 -612882 -23566.5 -215738 14 11.3486 0.0600388
68 1 56.4383 5.29918 1.76369 -4.38645 -427845 -93894.5 -939686 156398 422697 25839.7 12 10.8133 0.030185
69 1 3.55651 3.64943 56.4808 -4.35399 -15225.5 -62705.6 -647382 326079 294815 -461046 12 11.0863 0.0631062
70 1 5.28765 5.35267 56.4848 -4.42631 -284808 362549 290379 -303956 204469 162359 15 11.057 0.0126852
71 1 5.20347 3.53345 1.73952 -4.39798 -177292 -23009.3 513979 -243121 -21279.6 -470260 14 11.141 0.00757455
72 1 3.44928 5.22672 1.71729 -4.36973 -335529 -603652 615955 -737110 106064 -841645 13 11.1109 0.0778505
73 1 7.07282 3.6298 56.4499 -4.3844 377831 -628270 -783837 -95972.7 -223505 -273970 13 10.9137 0.0755459
74 1 8.93228 5.22876 56.4629 -4.40317 192594 -235227 -144247 -602642 34757.3 51067 16 11.0826 0.0473313
75 1 8.82331 3.50206 1.67423 -4.40613 -185674 -499671 326466 -103854 -140151 306434 14 10.971 0.0151936
76 1 7.00966 5.1334 1.71879 -4.37201 672103 -256156 -188506 -141683 -369389 -1.26561e+06 14 11.1901 0.0051567
77 1 10.6284 3.46214 56.4763 -4.41469 -966344 -520315 -144132 241849 29931.7 369025 14 10.7565 0.113205
78 1 12.3772 5.22089 0.0642059 -4.39337 -658001 -576136 -245391 731149 248318 -112508 13 10.789 0.0348231
79 1 12.4269 3.52304 1.77476 -4.44226 32976.9 -13442.6 62289.7 18496.5 160609 366333 15 11.038 0.102671
80 1 10.6635 5.24242 1.74173 -4.44201 424684 419582 111445 148616 186264 183575 16 11.2184 0.0956837
81 1 14.1748 3.68917 56.4975 -4.37525 -1.09438e+06 536903 -159418 517137 36159.4 287466 13 11.1347 0.17199
82 1 15.9172 5.42934 0.037114 -4.38023 -629437 -1.0647e+06 -731298 -396183 -385956 305.329 15 10.6276 0.00795716
83 1 15.8966 3.55556 1.72088 -4.42687 -366335 -157776 -241940 -512917 246808 -369047 14 10.8361 0.014664
84 1 14.1122 5.32959 1.85261 -4.4375 60358 -363539 100023 161843 71287.6 124626 14 10.9213 0.0133094
85 1 17.6858 3.54471 0.0339359 -4.42901 79501.5 -368599 -542666 -252185 126891 -233612 14 10.8513 0.0825915
86 1 19.4001 5.31506 0.0351636 -4.43401 -133579 233151 500264 38112.2 -549696 -175455 14 11.1223 0.0502444
87 1 19.4472 3.49803 1.78071 -4.44509 218968 518726 302158 186710 -56243.4 -273760 14 11.1406 0.0180589
88 1 17.6379 5.35894 1.78504 -4.38634 -1.16519e+06 15400.9 -975330 -96510.7 -69959.7 386993 14 10.6931 0.0516987
89 1 21.1925 3.5168 56.4995 -4.4307 107382 124415 417963 325228 61334.8 -91175.4 13 11.121 0.0347325
90 1 22.9609 5.28714 56.4983 -4.44846 399759 63108.9 522810 157030 33512.7 -171015 14 11.184 0.123748
91 1 23.0359 3.57769 1.77096 -4.44849 500223 53626.2 467456 -341944 -261657 -176721 16 11.1614 0.0364098
92 1 21.1695 5.36249 1.77028 -4.43475 377556 526777 128208 -278257 -69097.9 -221422 13 11.1639 0.00546026
93 1 24.8247 3.59952 56.4756 -4.41235 -727265 821183 972.244 -50345.5 -112407 43687.3 15 11.0506 0.00038277
94 1 26.5952 5.25734 56.3658 -4.35236 -1.12365e+06 -1.08141e+06 -421182 -275497 296570 -225779 14 10.7255 0.114773
95 1 26.4339 3.64595 1.74727 -4.38458 -104766 553090 -531113 93858.5 171621 -197100 14 11.1286 0.0184271
96 1 24.6994 5.34089 1.83135 -4.36951 -500633 -768354 -36243.4 -241975 389680 131031 14 10.8842 0.0300414
97 1 28.2762 3.52769 56.3608 -4.37915 -740356 125611 -740803 737330 806604 405256 16 10.942 0.126982
98 1 30.0601 5.37922 56.5007 -4.44164 212062 -411345 -219064 -50823.4 214869 23460.5 16 10.9003 0.024795
99 1 29.9969 3.59482 1.64835 -4.44857 -134602 -341857 210839 179148 -63167.8 22010.3 15 10.8851 0.00635678
100 1 28.2887 5.28377 1.72872 -4.40846 -1.0912e+06 -456719 -542945 80116.4 32103.8 390591 15 10.6455 0.0317235
101 1 31.7428 3.5024 56.3224 -4.35982 -687571 -268939 -362146 -624634 -559335 152938 15 10.9236 0.0491335
102 1 33.4051 5.21664 56.4754 -4.41371 404614 100626 623384 -187969 139866 321472 14 11.2811 0.0599775
103 1 33.4788 3.46727 1.66941 -4.40289 963029 -212699 453124 -229332 87312.9 379609 14 11.3077 0.0184897
104 1 31.7605 5.3509 1.76086 -4.41839 -59793.4 388828 -1899 85729.1 281576 419405 13 11.084 0.0339361
105 1 35.3321 3.71223 56.4051 -4.35126 130932 70507.9 191639 -505039 215935 124373 14 11.3254 0.00614152
106 1 37.0355 5.31683 56.3467 -4.32165 -1.13203e+06 -1.46415e+06 -1.02402e+06 -760276 -273114 -282897 13 10.5688 0.0373142
107 1 37.0691 3.53764 1.74212 -4.44456 211595 303448 910564 146591 -217589 49980.2 15 11.2567 0.0465116
108 1 35.3029 5.24904 1.74168 -4.41673 1.23118e+06 231523 274093 147873 101381 -677376 13 11.3564 0.0202801
109 1 38.9175 3.5975 56.4873 -4.42377 402812 229855 -161060 -472173 -416310 -338005 16 11.141 0.0506831
110 1 40.6361 5.35179 56.478 -4.41925 -112436 361530 783162 -76002.1 338128 -43547.2 14 11.256 0.0770367
111 1 40.5782 3.53096 1.79876 -4.36836 -1.17462e+06 847074 -256437 468361 -202414 331817 14 11.0405 0.0248763
112 1 38.8951 5.29569 1.6206 -4.36117 387960 -735382 -56614.1 387647 425674 418269 14 11.0984 0.00435483
113 1 42.3316 3.53099 -0.00731399 -4.43392 466988 582840 648842 12256.3 -473528 266409 14 11.344 0.0497764
114 1 44.0847 5.26552 56.3442 -4.41482 70907.8 720214 -29241.1 -197021 -678088 258540 14 11.1458 0.00614343
115 1 44.0211 3.47488 1.71115 -4.38903 -727398 74574 451689 -753825 -229360 -75577.2 13 11.017 0.00439883
116 1 42.4222 5.40756 1.72066 -4.43713 244294 102487 451057 -119156 -258890 153237 14 11.1728 0.0761991
117 1 45.9394 3.51512 56.4615 -4.41921 781195 339187 202249 244153 367623 9397.21 12 11.2922 0.0533174
118 1 47.5809 5.36848 0.0134863 -4.38651 -216667 -257059 313400 -367183 -30428 -98966.4 13 11.1001 0.0556737
119 1 47.7071 3.51477 1.82395 -4.39561 -118166 416971 228950 -810533 -214526 443635 14 11.2255 0.0528419
120 1 45.6617 5.2334 1.67793 -4.40803 776823 11384.2 7729.56 -138854 56548.6 274548 14 11.2343 0.0465198
121 1 49.4517 3.52063 0.0727944 -4.36846 777146 -833250 -1.43543e+06 3331.96 464057 -549740 16 10.8799 0.0255904
122 1 51.2228 5.34842 56.499 -4.3853 -798686 -166512 -782931 141951 -884267 -717876 13 10.7667 0.00775544
123 1 51.2629 3.52546 1.80217 -4.43493 -212892 -189777 10435.5 79508.7 468345 -381194 16 10.9532 0.0655847
124 1 49.4742 5.12965 1.694 -4.35008 -179596 -1.1992e+06 -174371 -445469 -42982.8 -330836 15 10.9318 0.0554037
125 1 52.9211 3.53998 0.0667604 -4.34287 -738298 -710922 -830082 -740827 -885027 -750335 13 10.8884 0.158402
126 1 54.7259 5.32779 0.0118763 -4.3997 -747748 -254320 -451060 33612 -264976 125134 13 10.7989 0.0581857
127 1 54.6488 3.52079 1.67546 -4.39801 -198975 362467 -125994 64323.8 -6507.58 24758.3 13 11.0819 0.0195179
128 1 52.9314 5.28501 1.70491 -4.39998 -75278.8 -425718 192125 -129901 -34.0989 -724028 14 11.0531 0.0824869
129 1 56.3974 7.09033 0.123866 -4.36027 -332108 -291007 -571861 -119794 233269 -386292 15 10.9735 0.0463804
130 1 1.76088 8.81324 56.4695 -4.42486 -436003 -97591.7 65188.5 471775 20035.3 4685.87 15 10.9415 0.0870804
131 1 1.68605 7.09046 1.73839 -4.4364 106909 291423 72251.8 -13317.1 -284116 -226498 15 11.0624 0.0258095
132 1 56.491 8.83958 1.73991 -4.43493 807519 -81261.5 351897 95156.7 34805 -373892 14 11.1932 0.0221776
133 1 3.49467 7.15698 56.4886 -4.40206 -261743 -327026 -66522.8 8100.29 -146491 77079.9 13 10.9405 0.0497589
134 1 5.20335 8.84028 56.5061 -4.40994 -636721 -521620 -268552 -235286 -306605 -214595 15 10.7257 0.00289521
135 1 5.13088 7.04112 1.81328 -4.41139 -60838.1 616770 330457 296607 -336187 -1424.65 13 11.2157 0.0533816
136 1 3.50182 8.77392 1.79035 -4.42147 20430.1 -217775 627166 600887 180274 -369764 14 11.089 0.0147107
137 1 7.01775 7.14242 0.148519 -4.39605 627426 66140.7 -11674.3 -420652 -547217 6375.23 14 11.2323 0.0120066
138 1 8.90563 8.72765 56.4252 -4.39822 -273281 300090 -93897.6 -144929 -901403 -528327 15 11.0631 0.0136569
139 1 8.76642 7.05049 1.79047 -4.39779 508880 1.06871e+06 120033 -489608 -109025 -112383 14 11.4224 0.0257179
140 1 6.92176 8.91879 1.74263 -4.34303 -45413.5 -817008 -29272.5 -28852.4 -184492 -865738 15 11.0533 0.0455308
141 1 10.6392 6.96309 56.4306 -4.40017 120239 -864302 4974.49 -73490.1 -270551 -638032 13 10.94 0.0671637
142 1 12.3293 8.75893 56.4241 -4.43946 106886 608252 552526 -14466.5 225232 253776 14 11.2106 0.0226683
143 1 12.4268 7.06537 1.77463 -4.41855 -458947 -139823 223852 188270 282689 2492.96 13 10.9247 0.0360657
144 1 10.5771 8.70195 1.65994 -4.41095 -79787.4 78511.4 12095.9 295069 30734.3 -216348 14 11.0312 0.0411088
145 1 14.1348 7.05361 56.4916 -4.41742 -417987 -263678 -353828 301849 485547 -506171 14 10.828 0.0269079
146 1 15.8259 8.8198 0.0492057 -4.4384 261509 -104183 224662 -269957 106603 -90904.9 15 11.0573 0.0340275
147 1 15.9094 7.05665 1.75951 -4.41315 827446 -513881 -273712 302554 50023.2 -825587 15 11.0592 0.0180882
148 1 14.0432 8.86005 1.72973 -4.4285 -230609 44000.5 51847.1 -459748 186296 -58020.6 15 10.9512 0.0138621
149 1 17.6903 7.02312 0.0437271 -4.39487 -694268 -230011 -291911 -350031 -293328 75340 14 10.8814 0.0634555
150 1 19.4307 8.81142 56.3873 -4.41994 147327 104099 113027 142199 137987 77960.6 14 11.0748 0.02492
151 1 19.3524 7.13821 1.78316 -4.40516 -72898.9 -224563 62607.3 421803 -765602 281196 13 11.0046 0.0384557
152 1 17.7562 8.88783 1.777 -4.40556 418135 -11793 183499 445816 214599 51496.3 15 11.1988 0.0708803
153 1 21.2122 7.04813 56.4809 -4.43506 572491 413952 307458 200352 -361539 173126 13 11.2104 0.0135812
154 1 23.0241 8.87808 0.0172463 -4.43913 344914 679591 377870 -51508.6 226219 371217 16 11.2457 0.0116108
155 1 22.9065 7.12896 1.70263 -4.41586 47186.5 -359531 -137943 101575 89719.7 234852 13 10.9495 0.0723673
156 1 21.2049 8.89284 1.66249 -4.41784 263701 83062.4 49835.3 478592 -6803.87 683700 14 11.0959 0.0307575
157 1 24.7612 7.00127 56.4714 -4.44713 728929 84350.2 175787 -329804 -251219 -375763 14 11.1666 0.0615708
158 1 26.445 8.85515 56.4855 -4.40989 -408564 60108.6 -359504 -360176 590453 -348226 15 10.9054 0.0248452
159 1 26.4993 6.99387 1.69541 -4.44987 -214637 148061 213066 163906 54472 -49508.8 14 11.005 0.0831993
160 1 24.8138 8.81014 1.66793 -4.40954 -428704 357162 -166967 -373884 169093 -30884.6 15 10.9952 0.0248326
161 1 28.2279 7.00815 56.4341 -4.42924 -458307 -306684 106510 -577665 -3839.46 264674 16 10.8861 0.0620125
162 1 29.964 8.70392 56.4808 -4.39841 -597640 -124291 -197650 623159 -443744 235211 13 10.916 0.050731
163 1 29.9691 7.0302 1.75785 -4.39659 -541333 -1.2229e+06 -1.29651e+06 87175.9 -129141 375424 15 10.5267 0.113402
164 1 28.2741 8.7767 1.81923 -4.42188 -315113 -57212.9 143504 -346803 610812 450055 16 10.9679 0.0139539
165 1 31.7102 7.13057 56.4872 -4.39071 -441288 -297162 336902 178408 -24761.1 336959 14 10.9825 0.00470814
166 1 33.4854 8.91404 56.4778 -4.39792 459830 -464379 -121117 -25773.9 246406 -153952 13 11.0546 0.0381528
167 1 33.5263 7.13669 1.71195 -4.42954 1.00744e+06 1.12307e+06 1.08985e+06 -307449 137243 1777.32 13 11.6198 0.0105173
168 1 31.6649 8.86885 1.73402 -4.4207 573307 -103793 159309 228447 -129127 -317620 13 11.1521 0.0720903
169 1 35.2534 7.01461 56.4775 -4.44787 557136 1.03457e+06 462428 146980 146906 -253022 13 11.3681 0.0311825
170 1 37.0165 8.83554 56.4348 -4.42492 168214 -29467.3 -306848 -37212.5 -240385 372299 14 10.9859 0.0633173
171 1 37.1228 7.02079 1.65848 -4.41829 -29669.5 722338 388825 61426 955154 -138770 15 11.2724 0.0641055
172 1 35.3485 8.82972 1.78895 -4.42645 -147924 274524 702096 -415932 97254.6 14976.9 15 11.1477 0.0244838
173 1 38.8041 7.01679 0.00498867 -4.38613 -214826 -331651 -733125 16721.6 560744 580929 13 10.8764 0.0965559
174 1 40.6013 8.82403 56.4492 -4.42888 122731 -67582.9 422210 -54899.1 -106265 136044 13 11.0775 0.0491671
175 1 40.6206 7.08987 1.76163 -4.44232 361327 133823 411871 27613.8 -11428.6 104368 15 11.1302 0.0440319
176 1 38.8221 8.81264 1.7188 -4.44433 708723 202372 653372 49563.3 128896 -208127 14 11.2746 0.0683079
177 1 42.3461 7.12647 56.4561 -4.41703 -211278 -30590.5 -218438 -101693 144697 344171 13 10.9287 0.0702175
178 1 44.1126 8.87607 56.4689 -4.443 828906 454294 65460.5 -52592.2 -129463 74433.4 13 11.2385 0.0434875
179 1 44.0849 7.10268 1.69245 -4.39379 -1.02209e+06 -58941.2 411869 -339545 -261272 287710 14 10.9011 0.0125382
180 1 42.3652 8.86966 1.76123 -4.41662 -12026.7 1115.38 114205 453094 -310527 512587 13 11.0284 0.0380752
181 1 45.8756 7.04254 -0.000155381 -4.41463 -35691.6 -122854 361574 208918 74679.6 -187726 15 11.1082 0.0865136
182 1 47.6581 8.76261 56.4089 -4.44489 748786 299437 590227 143913 31731.9 -272523 14 11.2766 0.00616073
183 1 47.6391 6.97429 1.7851 -4.40607 796831 106611 -460823 -33804.6 -155882 -55681.4 15 11.1481 0.0320893
184 1 45.9112 8.73883 1.69084 -4.41039 330336 -83829 488593 -257199 -60255.5 -108003 12 11.1547 0.0119643
185 1 49.3673 6.94743 56.4924 -4.39216 -404552 -409782 -191870 -37143.8 -496068 -433461 14 10.9066 0.0707879
186 1 51.1665 8.77509 56.4846 -4.42379 82593.9 387331 -535912 -176589 -506853 -638127 14 11.079 0.141853
187 1 51.1075 6.95688 1.77758 -4.41563 221719 -270753 637083 452038 -49386.3 -427355 15 11.1622 0.0512435
188 1 49.4321 8.66962 1.81472 -4.3921 397667 255039 865861 596024 198170 427331 13 11.3971 0.0119523
189 1 53.0153 7.04947 56.4189 -4.43877 -15135.2 -205447 605680 -163918 -351136 -273386 14 11.0678 0.0427988
190 1 54.5717 8.91138 0.0121891 -4.40616 -204883 377664 153815 8971.19 212150 47108 14 11.163 0.0604894
191 1 54.7391 7.02112 1.77002 -4.40067 -544487 25006.8 -257694 362587 782874 -298584 14 10.9189 0.0409988
192 1 52.9362 8.73162 1.73024 -4.43443 221887 576705 9464.17 175721 573656 -366979 13 11.1701 0.0593848
193 1 0.0140465 10.5729 0.0128013 -4.38903 103163 -673579 43744.3 -208603 -194243 -812871 15 11.0004 0.032244
194 1 1.63924 12.3078 -0.00204204 -4.38634 -190811 -284478 40930.8 105031 757763 6054.93 15 11.0317 0.0315579
195 1 1.81379 10.5593 1.75469 -4.42519 108410 115400 -148300 365868 -9894.86 -150434 14 10.9886 0.00806399
196 1 0.0364078 12.2953 1.71542 -4.39766 -330925 44216 -922666 66119.8 437227 -58274.5 14 10.8079 0.0045354
197 1 3.47937 10.5739 0.00382847 -4.44149 175920 384011 341976 108490 169872 35159.8 14 11.114 0.00238431
198 1 5.28624 12.3828 56.4596 -4.44294 21368.8 647099 332157 -345559 -398459 73202.7 15 11.16 0.041476
199 1 5.25548 10.5945 1.72676 -4.41669 141370 -240120 814795 534223 -101412 -302437 13 11.1539 0.0214147
200 1 3.56195 12.4232 1.74973 -4.42105 121251 -130848 38028.8 123240 -267601 -118783 14 11.0121 0.0183931
201 1 7.058 10.4924 56.3635 -4.4041 640382 118942 -446293 -85391.7 -442127 83160.9 14 11.1299 0.0245441
202 1 8.90716 12.4329 56.4257 -4.40172 94356.1 427521 -414752 -63483.9 -741923 -310924 15 11.0996 0.00940671
203 1 8.78859 10.3767 1.66578 -4.39609 -305836 675650 224007 -201486 5.12843 -407621 13 11.206 0.0143082
204 1 7.05018 12.3018 1.6314 -4.45168 453640 935699 888888 -540042 -447303 217293 16 11.4648 0.101581
205 1 10.6041 10.5654 56.4417 -4.43491 354987 464600 1.07335e+06 -326622 -229424 -120900 14 11.3439 0.00880073
206 1 12.2562 12.3244 56.4618 -4.42307 239863 874525 908659 -61211.4 -11099.4 315512 14 11.4431 0.0309274
207 1 12.3015 10.6044 1.85908 -4.35681 127657 -468041 -243883 214459 463498 -706716 13 11.0587 0.0250967
208 1 10.5159 12.3434 1.6798 -4.39432 2031.95 325123 -962264 670625 -170198 199045 13 10.9776 0.0666662
209 1 14.0813 10.5707 56.4993 -4.40209 422380 -423317 -754408 252718 -256814 -144798 13 10.8846 0.00744338
210 1 15.9542 12.3831 56.4946 -4.43307 667430 182274 14392.1 -213266 -9685.44 -87039.4 14 11.1391 0.0186456
211 1 15.801 10.6203 1.71395 -4.3882 -202822 -523807 -717200 332928 103822 -463460 14 10.7996 0.0265095
212 1 14.1284 12.3107 1.65049 -4.40736 12474.8 -119157 47666.9 267425 187970 -132038 15 11.0364 0.0165968
213 1 17.6467 10.5106 0.00824697 -4.4318 443424 56405.4 61841.2 302980 58675.4 164694 13 11.1043 0.0707908
214 1 19.5202 12.2943 56.4986 -4.36624 -853198 303996 -1.13323e+06 740438 535351 -16120.4 14 10.8407 0.0585182
215 1 19.4824 10.6677 1.77732 -4.4217 15588.6 -125279 466451 365707 138445 463509 14 11.0863 0.0397211
216 1 17.7367 12.3417 1.71985 -4.44229 147115 461392 301188 391164 -196476 205834 14 11.1236 0.00303104
217 1 21.1992 10.6127 0.00900821 -4.40323 -92744.5 -508943 325851 312200 326072 598786 12 11.0514 0.104913
218 1 22.9366 12.375 56.468 -4.44186 168633 -236426 256660 129258 291102 -13226.4 15 10.9839 0.00491133
219 1 23.0194 10.6795 1.75446 -4.43047 95637.4 -139743 -91504.1 -582029 -390118 179356 15 10.9632 0.0276171
220 1 21.2404 12.4495 1.7066 -4.42238 -525018 -273519 -66963.5 94514.6 -86486.2 -121766 15 10.8358 0.0426533
221 1 24.7442 10.6581 56.4228 -4.43031 -539227 -369362 -192285 -225837 -411834 -69670.1 15 10.7604 0.0144118
222 1 26.4916 12.3283 0.040297 -4.43448 -332746 -185082 -289066 -183247 172573 445622 15 10.831 0.044223
223 1 26.4493 10.5796 1.67049 -4.38748 -153653 -802819 -702564 -107523 539607 -254558 15 10.7983 0.0420446
224 1 24.7301 12.3361 1.72651 -4.40312 -658251 -532933 -757081 -173232 33371.7 266320 13 10.6823 0.0625997
225 1 28.2244 10.5013 0.0481396 -4.41792 -131095 -63377.6 -227424 -194417 -728.223 136327 14 10.9122 0.000716823
226 1 29.953 12.3506 0.0751136 -4.40761 -479917 371987 -225262 177736 127549 -267999 14 10.9675 0.0151651
227 1 29.893 10.5217 1.82355 -4.38547 -374849 351289 528353 274045 -345363 -39891.9 15 11.2075 0.0148193
228 1 28.2722 12.3853 1.74362 -4.42061 -673178 564053 -206913 107457 245579 -26746.5 13 11.0112 0.145585
229 1 31.785 10.6282 56.4896 -4.3905 170738 -340415 -441280 542207 -538801 404094 14 11.0361 0.0984565
230 1 33.6271 12.2987 56.4963 -4.39387 -572285 -655677 -766473 481434 284483 627646 16 10.702 0.041785
231 1 33.563 10.5346 1.66726 -4.39201 102854 -200444 -661305 -20400.6 -92373 -341721 14 10.9519 0.0212919
232 1 31.8337 12.4253 1.62184 -4.36898 320559 -67535.6 -633758 348058 -320906 -259998 14 11.1333 0.0671781
233 1 35.2861 10.6087 56.5111 -4.38087 -859049 -1.31241e+06 -606056 366076 239822 -623627 13 10.5715 0.0486543
234 1 37.0463 12.312 56.4633 -4.43737 -454302 -178001 70031.1 18370.7 -42378.9 -371854 15 10.858 0.0410287
235 1 37.0299 10.5288 1.72137 -4.42559 -630018 -198592 260464 -273622 -106406 -4008.56 14 10.8823 0.051206
236 1 35.3253 12.3137 1.72485 -4.40791 -684979 -604424 -600115 389992 -18164.1 121002 16 10.6751 0.0293688
237 1 38.8082 10.5902 56.468 -4.4208 -203086 571045 -135062 33190.4 -140564 207531 14 11.0723 0.0727766
238 1 40.5622 12.3572 56.4226 -4.42934 135355 114120 667337 228709 -82214.2 193414 14 11.1798 0.0537831
239 1 40.6269 10.5635 1.7798 -4.39772 -131802 988655 463443 497384 713553 2890.27 13 11.3674 0.0670654
240 1 38.7735 12.2833 1.81151 -4.44239 840819 617259 878788 157257 -17824.4 294292 14 11.5085 0.12845
241 1 42.2369 10.6013 0.0750088 -4.37425 293149 342570 390356 -9592.45 678315 640743 15 11.4081 0.0873538
242 1 44.165 12.3052 56.4719 -4.43879 881946 423061 900297 -173594 -120282 -23395.4 14 11.4185 0.0331425
243 1 44.2253 10.6194 1.78381 -4.39899 762325 518568 -378578 -228456 -13955.9 811493 14 11.2602 0.0440327
244 1 42.3371 12.5331 1.7516 -4.39011 62242.2 12522.8 -132920 121283 -314009 660582 13 11.1338 0.09513
245 1 46.0128 10.6473 0.0459666 -4.4087 -143715 467490 593337 -94911.8 126161 101572 15 11.2092 0.0211453
246 1 47.71 12.322 0.0951226 -4.37428 -903397 187346 -67997.4 -348254 -620661 -127928 14 11.0316 0.0965479
247 1 47.7094 10.4343 1.76983 -4.43622 476536 618444 584460 -166794 -184659 302730 16 11.3243 0.0366356
248 1 45.9686 12.4392 1.80543 -4.40531 -99705.9 -530184 -96384.5 -8100.04 102618 -126123 15 10.9517 0.0907613
249 1 49.4515 10.6149 56.4766 -4.43828 -212963 806993 341953 326186 -253865 -252958 15 11.1953 0.0697848
250 1 51.1395 12.4612 0.0630397 -4.42913 -470469 -378619 297737 297073 -145100 -10108.1 15 10.8817 0.0359216
251 1 51.1927 10.591 1.70299 -4.38724 -362762 662485 -1.09254e+06 -123945 -141401 -255933 15 10.9626 0.0638515
252 1 49.3028 12.3751 1.75039 -4.36736 -966942 150354 -1.21385e+06 303285 -638330 73542.3 14 10.7379 0.0386611
253 1 52.8283 10.5533 56.4957 -4.38734 -334876 -467829 -535428 365223 127586 -452119 14 10.8584 0.0611166
254 1 54.7493 12.2839 56.4707 -4.42124 674691 -330201 -234151 -21151.4 -247993 -414217 14 11.0582 0.0595852
255 1 54.6351 10.6152 1.81455 -4.40031 -33884.2 321386 -228228 175691 599820 -382711 15 11.077 0.0358688
256 1 52.9399 12.379 1.72054 -4.40704 -139575 -349088 -135465 -319462 -141408 457488 13 10.9194 0.0323384
257 1 56.4778 14.026 56.4769 -4.41137 -565576 222447 113679 176752 325430 223150 14 11.0027 0.0336472
258 1 1.66514 15.9045 56.4345 -4.43235 218770 641057 380217 535327 -93369.4 -334927 15 11.2274 0.00842258
259 1 1.75097 14.1099 1.7913 -4.42852 -527454 219026 172953 90884.8 -84635.4 -255069 13 10.9626 0.00661211
260 1 0.107673 15.9514 1.79127 -4.3919 17301.1 -423839 -354050 237007 414301 716750 15 10.9521 0.0172989
261 1 3.49771 14.1588 56.497 -4.42533 -114770 632313 -377966 32973.4 -86457.5 -125285 14 11.0267 0.0170467
262 1 5.29771 15.8647 56.4513 -4.4082 240506 -378424 -78441 330771 -15748.9 -190690 13 10.9696 0.00144011
263 1 5.25414 14.1951 1.68369 -4.40301 -405328 -493741 -772751 -50544.1 228625 26038 15 10.783 0.119012
264 1 3.48087 15.8949 1.70958 -4.41067 89134.4 -511305 -754173 486027 32511.5 202975 14 10.8486 0.075655
265 1 6.9897 14.1123 56.4302 -4.43437 100184 -81261 403812 -3356.75 162296 -4051.45 14 11.0659 0.0510746
266 1 8.86809 15.8407 0.016804 -4.40808 -428016 -214629 -65208.4 524158 594870 174146 14 10.9234 0.06094
267 1 8.73714 14.0572 1.77853 -4.39626 -309214 -385252 -213214 306500 396058 405500 13 10.9002 0.0806242
268 1 7.12418 15.8698 1.69441 -4.42621 475779 192666 434403 293556 351561 308227 14 11.2129 0.0221491
269 1 10.591 14.1694 0.114934 -4.40228 -448192 -670968 364307 8217.29 -53313 118709 15 10.8995 0.0162999
270 1 12.2976 15.9471 0.0692259 -4.40516 332021 -488891 -253571 278069 -215635 -118831 15 10.968 0.0121318
271 1 12.3402 14.2925 1.84153 -4.35043 -569223 29447.7 -1.19885e+06 217165 -308192 85704.6 14 10.8761 0.0348772
272 1 10.5141 15.8828 1.84596 -4.42119 -460080 -111232 -7542.85 316874 167919 -545075 15 10.8941 0.0136674
273 1 14.071 14.2184 0.110806 -4.41539 753104 604975 579810 254597 -22009 238380 14 11.4786 0.0644974
274 1 15.9524 15.9201 56.5025 -4.41448 -612014 631001 -79024.1 -360672 -612416 275772 13 11.0529 0.106703
275 1 15.9271 14.1117 1.69228 -4.40641 -378807 149681 -439640 -550538 -397602 -288029 14 10.8907 0.00586417
276 1 14.1091 16.0191 1.72527 -4.40184 -383160 -529119 -636011 238571 -269939 -60884.4 15 10.8009 0.0910575
277 1 17.7401 14.0922 56.5169 -4.42392 127254 -338778 -61878.8 -440733 -141809 -101232 13 10.9511 0.0368802
278 1 19.4273 15.8595 0.0176755 -4.41982 360099 -266277 -411030 -375912 -318441 36525.6 14 10.9439 0.0152177