ITEM: TIMESTEP
5000
ITEM: NUMBER OF ATOMS
16348
ITEM: BOX BOUNDS pp pp pp
0.0000000000000000e+00 5.6512000000000000e+01
0.0000000000000000e+00 5.6512000000000000e+01
0.0000000000000000e+00 5.6512000000000000e+01
ITEM: ATOMS id type x y z c_peatom c_satom[1] c_satom[2] c_satom[3] c_satom[4] c_satom[5] c_satom[6] c_coord c_voro[1] c_keatom
1 1 0.0955692 0.003439 0.0390894 -4.40279 -158000 -377725 89281.6 -88354.7 -338693 -118686 14 10.9922 0.0223915
2 1 1.76155 1.68925 0.0311108 -4.38683 -178807 -95682.3 -200111 -109724 174961 -146013 15 11.0747 0.0535174
3 1 1.73003 0.0249219 1.82603 -4.39192 -354048 -1.21645e+06 -1.25105e+06 -871.847 -19099.1 -92415.4 13 10.5455 0.0741981
4 1 0.0465878 1.79897 1.69675 -4.42066 343644 450097 -133387 347168 109666 -27807.8 14 11.1693 0.0398068
5 1 3.39809 56.4177 0.0360792 -4.39497 -267156 -134260 40424.1 264254 -418413 84870.3 14 11.0304 0.00644101
6 1 5.16609 1.8635 56.4611 -4.39201 369970 481538 -379686 234603 -430318 589055 14 11.217 0.0372324
7 1 5.24191 0.120736 1.81984 -4.41235 -65216.1 486321 402313 115494 230577 -359927 14 11.1783 0.0143934
8 1 3.47772 1.76081 1.81479 -4.39422 -588014 -639239 209240 434985 194522 -416823 14 10.8879 0.0527893
9 1 6.96039 0.04259 56.4935 -4.42518 448693 311554 407592 -811950 254331 457892 14 11.3181 0.145132
10 1 8.77472 1.88622 0.0170941 -4.41905 301146 -44274.7 -376126 67639.2 -52661.5 274819 14 10.9633 0.00719029
11 1 8.85913 56.5205 1.67898 -4.41003 176402 549509 -184354 -369333 527030 -420801 14 11.1659 0.0619321
12 1 6.97784 1.88857 1.71715 -4.4327 603171 623630 951660 -637531 -90150.4 287628 14 11.4805 0.0863216
13 1 10.5442 0.0646663 0.0256524 -4.37197 -159274 -183322 -360706 -908069 226405 96501.7 13 10.9844 0.0184774
14 1 12.3065 1.72687 0.00276841 -4.41725 877650 495079 627789 -229408 370224 118327 13 11.4567 0.0458682
15 1 12.4504 56.464 1.69991 -4.4208 596434 500582 29476.5 -227015 606480 84413.5 13 11.2601 0.0937241
16 1 10.5816 1.79541 1.73155 -4.41162 197528 286873 -622633 -311405 70809.1 -21352.4 12 10.991 0.0492497
17 1 14.2319 56.4157 0.086352 -4.39955 80534.6 938295 523208 97599.1 422104 24180.9 13 11.3485 0.00742818
18 1 15.9191 1.76396 0.0735136 -4.41616 194287 622195 -396459 -329971 478809 -533568 13 11.0972 0.0233026
19 1 16.0084 56.4515 1.84685 -4.42935 -107122 208276 -319754 78746.4 -247108 -10792 15 10.9849 0.0861789
20 1 14.2148 1.82143 1.80383 -4.4139 154249 328315 244610 -392850 377011 -357431 13 11.1882 0.028594
21 1 17.7564 56.4349 0.0729973 -4.42442 87916 450241 -165475 63248.5 683232 123004 14 11.095 0.0285295
22 1 19.4183 1.79852 56.4865 -4.42256 -106736 -367748 76258.2 605416 18623.9 -327044 14 10.9267 0.0382443
23 1 19.455 0.0830419 1.88725 -4.37981 -640692 -1.45473e+06 -649749 251652 -148290 -454126 15 10.5771 0.00208125
24 1 17.7227 1.75693 1.73649 -4.44382 -269280 -299580 -45070.1 198881 113228 156720 16 10.8396 0.0341628
25 1 21.1692 0.122146 0.0191808 -4.44796 -213222 279364 359096 163784 -468428 -72282.2 16 11.0509 0.0582561
26 1 22.9111 1.91703 56.4884 -4.38401 -140240 -328050 -622336 387240 -241452 572928 14 10.8948 0.0151268
27 1 22.9564 56.5135 1.72745 -4.37285 -1.06848e+06 -396439 -1.14983e+06 -851710 731238 -759471 14 10.6788 0.104482
28 1 21.2085 1.83557 1.78426 -4.44714 480329 59785.8 -7017.54 176168 403708 -180245 16 11.0464 0.00160372
29 1 24.6884 56.5114 0.0221509 -4.40661 -319730 -303790 -201707 -538030 351801 -641013 14 10.8781 0.0215065
30 1 26.443 1.76308 56.4556 -4.44733 372223 690019 525655 171875 398785 186886 15 11.2612 0.00879913
31 1 26.5999 56.5185 1.71789 -4.41747 246315 -111913 -260872 196175 278184 -458790 14 10.9823 0.0537568
32 1 24.6847 1.70925 1.70721 -4.387 129287 -395658 -733844 136183 399212 -203633 13 10.9288 0.0657463
33 1 28.305 0.00846558 0.0124252 -4.41711 -446379 388161 150651 56475.3 394399 -109991 15 11.0426 0.00323785
34 1 29.9789 1.80918 56.4965 -4.38247 -634603 -608108 -584297 -44430.5 832572 384485 14 10.7298 0.0178578
35 1 30.0768 0.0462335 1.65625 -4.385 -702287 -382304 -691655 462944 125993 -146963 15 10.7601 0.0344955
36 1 28.384 1.82926 1.67813 -4.40358 -243439 -33341.5 -483435 16105.6 813293 144311 15 10.9466 0.0763074
37 1 31.7082 0.0392765 56.3817 -4.41701 -438768 195358 249287 -499628 92943.2 249580 14 11.0224 0.0229716
38 1 33.5587 1.7268 56.3927 -4.42083 1.26429e+06 374753 486195 141545 129630 -82470.1 13 11.4377 0.0188119
39 1 33.5247 0.0747282 1.61444 -4.42199 653572 -118959 440542 -44761.6 56403.4 -180038 15 11.2366 0.0904506
40 1 31.7831 1.80679 1.77124 -4.41633 -351732 -178043 442940 -404684 -320586 48875.9 13 11.0419 0.0917878
41 1 35.4317 0.0441101 56.4145 -4.40163 -206231 377637 104085 159196 224837 -46192.3 13 11.1164 0.0600928
42 1 37.2031 1.71821 56.4111 -4.37061 -21743.9 -140124 -639926 -508966 311739 122114 14 11.0267 0.051371
43 1 37.0661 0.0423078 1.71517 -4.424 -212528 -13343 427975 -330443 -450027 -66428.3 13 11.0372 0.0288366
44 1 35.3176 1.76064 1.78732 -4.4255 60734.6 387125 1.01705e+06 52304.7 55948 34243.9 13 11.3095 0.0326841
45 1 38.9165 56.4427 0.00575836 -4.42725 -544807 -75425.9 106953 229526 159147 -216568 15 10.8873 0.0231949
46 1 40.6369 1.65339 56.4249 -4.4227 -79694.2 -51007.9 244426 -209741 -141404 -417767 16 11.0154 0.00471721
47 1 40.6531 56.4572 1.74646 -4.41674 -203021 -515700 -44027.1 288656 -288630 -7224.04 15 10.9301 0.104545
48 1 38.833 1.78559 1.70777 -4.42707 -254450 237123 177242 -250300 53147.4 -100825 13 11.0144 0.0253293
49 1 42.4351 0.00590174 -0.00911096 -4.43258 -172385 -265148 -192497 -21118.4 95509.5 -67125.3 14 10.8948 0.0760506
50 1 44.0724 1.75528 56.4572 -4.41936 -218282 -288971 -341582 -255003 -146371 -304023 15 10.8585 0.0387878
51 1 44.1121 56.494 1.81405 -4.42236 -166451 -179695 -503656 241901 457526 328988 15 10.875 0.0742202
52 1 42.3563 1.75447 1.69676 -4.38922 46605.4 -880191 -71103.3 -459399 -18258.1 -412544 14 10.9364 0.0478473
53 1 45.7852 56.4677 0.124468 -4.38664 -282267 -10009.8 -550310 -147816 -169783 520132 15 10.9387 0.0190524
54 1 47.6982 1.65664 56.4842 -4.40073 -98115.3 697036 -233176 272983 741871 444712 13 11.1373 0.0344001
55 1 47.6468 56.443 1.73383 -4.42826 481130 566901 704514 -224516 -93512.1 190239 14 11.3449 0.0126226
56 1 45.8769 1.83087 1.71888 -4.40777 114377 299616 425795 -134585 -210045 -52627.6 13 11.191 0.0172731
57 1 49.4839 56.4732 0.0455968 -4.42255 359121 -33377.4 118274 496812 332433 -218438 15 11.0886 0.00535446
58 1 51.2236 1.79595 0.0580843 -4.40658 -711669 -85110.1 -420550 -228783 -428014 95359.7 13 10.7763 0.00552523
59 1 51.1354 0.0259985 1.88349 -4.41956 -372606 382638 320213 251286 -476042 -42968 15 11.1722 0.145461
60 1 49.4446 1.71994 1.75779 -4.42194 182442 -40355.2 362348 393286 -334595 -34857 15 11.1736 0.0862736
61 1 52.96 56.455 0.122269 -4.42381 -96547 15886.2 198715 -350441 -258400 -491198 14 11.0144 0.00488405
62 1 54.7143 1.73791 0.0215927 -4.44131 594168 489430 203049 -237342 -280748 -288809 13 11.2079 0.0192176
63 1 54.7263 0.0076565 1.84591 -4.40037 -433361 86424.2 -461800 672498 -456603 184618 15 10.9293 0.0190758
64 1 52.9191 1.7133 1.74427 -4.3747 -331085 -1.00945e+06 -720154 -165229 -513595 520710 14 10.7461 0.0828135
65 1 56.41 3.59147 0.0327183 -4.40702 524260 344389 129863 -199625 -262149 388428 13 11.2429 0.0266626
66 1 1.66955 5.34301 56.476 -4.4256 64979.8 311725 190975 295542 -287348 338644 12 11.1176 0.0351153
67 1 1.90887 3.5796 1.67961 -4.36031 -121460 -399063 21889.1 -346164 -91238.9 -27534.2 13 11.1892 0.138173
68 1 56.4093 5.32967 1.80062 -4.38714 -135231 468992 -747465 161433 361927 -247901 13 11.0536 0.0456268
69 1 3.53269 3.70229 56.4617 -4.35069 -606547 330800 -698489 366376 212764 -8111.46 13 11.0206 0.0367119
70 1 5.25943 5.41746 56.4735 -4.42254 -277917 77749.7 644537 -648680 131058 88084.9 14 11.1018 0.0220021
71 1 5.12571 3.58546 1.71368 -4.38635 34264.3 753575 188211 33234.2 381041 -324891 15 11.4079 0.0556935
72 1 3.42276 5.36604 1.71713 -4.39302 -256449 -435753 482744 -612331 113311 -593725 13 11.0277 0.00782721
73 1 6.97043 3.60635 56.4917 -4.42079 77989.3 -49413.7 -310958 2564.95 43282.7 -200224 15 10.9432 0.0251243
74 1 8.82332 5.26821 56.4381 -4.42949 52639.3 -318022 81390.3 -248932 415407 -201655 14 10.9555 0.00553141
75 1 8.74381 3.58128 1.75053 -4.40394 408183 -432445 332546 304579 -205402 -285352 14 11.1173 0.0537774
76 1 7.03958 5.23625 1.7308 -4.3787 448423 -498751 293055 481981 -283184 -650864 13 11.1948 0.00942747
77 1 10.592 3.5717 56.5022 -4.44411 -291716 243384 457363 -39092.5 1437.99 400819 14 11.0592 0.0470279
78 1 12.3444 5.28431 0.0509255 -4.37939 -864256 -1.55672e+06 -533307 450596 332992 -142789 13 10.513 0.0112776
79 1 12.4064 3.57049 1.70861 -4.42594 -169015 225264 -519047 96108.7 531529 283839 15 10.9078 0.0300179
80 1 10.6218 5.34476 1.77906 -4.44182 445377 -107684 -229099 304229 405123 240114 14 11.0132 0.0753647
81 1 14.1432 3.65902 0.035809 -4.42838 -406821 567657 -344759 170469 548124 90227 15 11.0769 0.184816
82 1 15.9342 5.38118 0.103115 -4.40743 -598591 -570396 -480223 -38528.5 258363 -65037.6 15 10.7085 0.0181675
83 1 15.9328 3.52374 1.73701 -4.42473 -345782 -343470 -425665 -286415 419821 -328756 13 10.7734 0.0253722
84 1 14.1954 5.35271 1.8008 -4.41657 -466219 -647029 -573241 197295 448997 243250 14 10.6782 0.0167725
85 1 17.7073 3.54538 0.0774647 -4.41945 -197864 -454869 -447366 59623.6 34778.6 6612.33 13 10.8096 0.0791562
86 1 19.3693 5.39514 0.0784755 -4.40544 -334122 -100535 -69278.5 78982.4 -292780 -262933 15 10.9987 0.0823037
87 1 19.4664 3.55324 1.75284 -4.43649 20890.2 258819 491180 12696.9 -337107 -226854 14 11.1072 0.0150725
88 1 17.6811 5.34942 1.79468 -4.38189 -1.32432e+06 36217.7 -1.51684e+06 178148 39415.3 155153 16 10.5559 0.0197884
89 1 21.2532 3.59569 56.4704 -4.40795 160089 -144740 131596 418448 338569 -23458.3 14 11.1615 0.146715
90 1 23.0575 5.32613 0.0255003 -4.42736 -219964 -72860.1 477443 -339129 113193 -58487.5 13 11.0532 0.0829641
91 1 23.1109 3.56694 1.86958 -4.40411 -159487 -186769 333186 -253347 -364097 -225396 13 11.0806 0.0342223
92 1 21.2066 5.31714 1.76598 -4.43897 753742 349668 435910 -558248 64037.9 -11077.9 13 11.26 0.0093378
93 1 24.8265 3.60246 0.0213719 -4.45169 -55560.3 450572 536564 274537 105509 110072 15 11.1068 0.00402537
94 1 26.6018 5.31804 56.479 -4.42679 101049 -260012 391119 -215349 -34907.5 85357.3 14 11.0745 0.0642032
95 1 26.6113 3.6169 1.76392 -4.39875 -13071.9 415574 -505235 -248820 319514 46281.5 14 11.0586 0.0110416
96 1 24.709 5.35011 1.86809 -4.37947 -171516 -696489 -261728 -738987 95246.4 241855 14 10.9157 0.0332707
97 1 28.2861 3.57406 56.3879 -4.42222 -254976 -159330 -196908 582753 720809 83550.6 16 10.9045 0.0275022
98 1 30.0812 5.3019 56.4909 -4.43066 -460853 -323871 -136036 -137765 80675.3 -103857 15 10.8394 0.0854241
99 1 30.0412 3.62573 1.7316 -4.43133 -325436 -447738 -53659.3 -30861.4 -280143 47145.1 16 10.8452 0.044946
100 1 28.3267 5.30976 1.76074 -4.40304 -1.2955e+06 -375034 -471605 -199252 217773 19257.2 15 10.6512 0.0315957
101 1 31.743 3.49484 56.3388 -4.4187 -118161 28826.2 314528 -111772 -239674 211813 15 11.086 0.0550641
102 1 33.5251 5.26281 56.4565 -4.43981 533925 466545 505221 5705.81 230697 89523.8 13 11.2671 0.0509012
103 1 33.5239 3.44177 1.67566 -4.41532 530663 132251 694266 -219845 294350 349199 14 11.3103 0.0389052
104 1 31.8133 5.34495 1.69823 -4.42156 162571 189012 -158057 137186 -131189 386732 13 11.0482 0.017596
105 1 35.371 3.64202 56.4755 -4.38788 383300 537402 559967 -329644 300375 248947 13 11.4351 0.0307716
106 1 37.0397 5.34131 56.3986 -4.38833 -528741 -459041 -602222 -822085 -333823 -450913 14 10.8065 0.0508437
107 1 37.0959 3.49133 1.75197 -4.43721 271997 466418 784073 146672 -536348 432529 16 11.3178 0.0527019
108 1 35.3415 5.29691 1.79571 -4.4137 852664 186645 453805 -165944 261171 -966285 13 11.3244 0.00774543
109 1 38.922 3.53909 56.432 -4.4509 682225 422227 187657 -407660 -508725 -168401 14 11.1884 0.00295025
110 1 40.6093 5.36276 56.4716 -4.4311 169644 204148 701042 -57498.4 137855 -107454 14 11.2299 0.0802702
111 1 40.5664 3.49647 1.73791 -4.38101 -887992 993135 -405930 35717.6 -468616 33257 14 11.0424 0.0362567
112 1 38.8424 5.32523 1.66005 -4.41408 88064.3 -377585 -13020.2 395626 196153 559629 13 10.9736 0.0378161
113 1 42.2761 3.5186 0.00564291 -4.4304 274868 76573.4 334185 -161897 -209109 228103 14 11.1627 0.0671319
114 1 44.0775 5.17695 56.4035 -4.4013 -55660 955237 -386499 -99708.7 -708710 107244 14 11.1655 0.039681
115 1 44.0435 3.42096 1.73366 -4.38873 -398507 -339387 497451 -472480 -66154.4 83456.9 14 11.0171 0.0150058
116 1 42.4206 5.37262 1.72841 -4.45536 656950 333494 -12234.2 -13376.2 6255.42 189849 14 11.1557 0.0745232
117 1 45.9329 3.4891 56.4441 -4.41385 96962.2 428670 -76872.9 -115977 -128347 454085 12 11.105 0.0347111
118 1 47.5863 5.30673 0.0095689 -4.38409 -269788 -650910 288279 -368891 64953.1 51523.1 13 10.9896 0.0433409
119 1 47.5929 3.53173 1.78884 -4.42617 514997 829676 618295 -677989 115720 429799 13 11.4238 0.0572107
120 1 45.616 5.29935 1.75334 -4.38006 786419 -519876 -302963 105832 -40008.1 858884 15 11.1287 0.00807921
121 1 49.4726 3.52088 0.138547 -4.39261 657104 -801468 -1.10485e+06 168830 293992 -18697.2 15 10.8473 0.017229
122 1 51.2221 5.33599 56.463 -4.39182 -572137 -478713 -374816 70555.6 -667113 -709978 13 10.7938 0.0136255
123 1 51.2124 3.5003 1.88435 -4.42928 -532496 -329110 -183422 88921 45827 -524043 15 10.8453 0.129791
124 1 49.476 5.20649 1.77487 -4.42398 430359 -677154 288487 -172155 -85010.4 -392562 17 11.0548 0.0929076
125 1 52.8783 3.53731 0.0892349 -4.39 -382641 -292386 -259821 -353965 -878715 -108979 13 10.9305 0.0429645
126 1 54.6526 5.31712 0.0545119 -4.41956 -526581 -9370.77 -85522.9 383391 22965.4 83693.6 14 10.8926 0.0407511
127 1 54.5999 3.47739 1.71412 -4.39387 158110 268861 -112330 -132781 -84399.9 55071.1 14 11.14 0.00914056
128 1 52.8973 5.31495 1.78976 -4.42201 260352 -154947 -123473 206708 321729 -441582 14 11.0436 0.0865548
129 1 56.4216 7.08758 0.0530613 -4.39361 -250485 87930.9 -509219 123896 -54407.8 -521955 14 10.9613 0.0186954
130 1 1.70218 8.87253 0.00350421 -4.39293 -497354 -624886 341116 166700 -193592 -2533.93 13 10.9315 0.0492774
131 1 1.6378 7.13349 1.68607 -4.41764 38819.3 53000 209595 67715.5 -416275 31499.8 15 11.0722 0.0201392
132 1 56.4051 8.84287 1.77578 -4.41876 -119540 -217983 93183.7 35696.2 63437.5 -382895 14 10.9703 0.0272199
133 1 3.48413 7.20849 56.4609 -4.40814 -5917.36 -183676 -436647 55537.5 47106.7 -32165 13 10.9221 0.0275867
134 1 5.30851 8.78204 56.4315 -4.37435 -412674 -841604 -827048 -219096 -365340 -396478 14 10.6869 0.0109277
135 1 5.25715 7.0402 1.81883 -4.4257 195882 759090 586898 61109.5 -147061 -118611 14 11.296 0.00222473
136 1 3.49794 8.77639 1.75498 -4.43119 625855 268280 804286 298123 -144847 -573669 14 11.3416 0.0202311
137 1 7.00223 7.0337 0.109584 -4.39185 122424 -578135 78300.2 -165503 -224827 145683 15 11.0378 0.054325
138 1 8.98589 8.77041 56.4595 -4.39945 100317 342858 -102822 53721.5 -715079 -302253 14 11.1433 0.00393197
139 1 8.79635 7.03173 1.76827 -4.42042 425856 356612 212984 -383875 -118062 -310010 15 11.1962 0.00767122
140 1 6.95116 8.91223 1.68254 -4.35774 9704.01 -653024 229232 -29749.6 -404489 -686541 15 11.1444 0.0739213
141 1 10.6133 6.91369 56.4096 -4.34962 -641765 -1.14287e+06 -843749 280885 190472 -811836 13 10.6602 0.00452693
142 1 12.2955 8.78396 56.4663 -4.44564 1.01567e+06 1.02775e+06 442095 36227.6 308476 333519 13 11.4699 0.00888481
143 1 12.4728 7.02836 1.67722 -4.40413 -507653 -337185 -334907 351944 390979 -195196 15 10.8296 0.0552715
144 1 10.5971 8.68473 1.6564 -4.3884 -134660 460446 -474702 29621 -272005 -40290 13 11.057 0.0333875
145 1 14.1374 6.9868 56.4868 -4.38789 -374526 -131114 -599227 28080.9 867922 -377924 14 10.9028 0.0202345
146 1 15.7975 8.84118 56.4718 -4.41598 298797 296152 339099 101583 66660.4 7681.79 14 11.2178 0.00602992
147 1 15.9418 7.07673 1.80975 -4.40116 530047 -706243 -421579 2539.16 238717 -989717 15 10.9677 0.0224735
148 1 14.1249 8.91392 1.75772 -4.42068 31088.7 577574 159531 -417464 261689 243464 13 11.1596 0.0167397
149 1 17.6785 7.08236 0.114315 -4.36167 -658890 -703271 -274971 -128074 -300930 -169832 13 10.8946 0.0427829
150 1 19.3914 8.84986 56.3671 -4.39171 -603057 -387984 -104778 -332728 135319 211679 14 10.8687 0.0311873
151 1 19.4221 7.19338 1.69412 -4.36275 -725444 -540377 -399268 737106 -506275 -314682 14 10.8732 0.073344
152 1 17.8019 8.84281 1.76652 -4.38264 -38590.6 -399497 161023 646104 246493 -508856 16 11.0893 0.0274692
153 1 21.2211 7.05356 0.0472892 -4.42948 204002 684120 -162460 -175439 -35783.6 -54586.8 16 11.1455 0.0415676
154 1 22.9925 8.85809 0.0230138 -4.45006 272672 580509 720832 181462 263831 162668 15 11.2508 0.0171434
155 1 22.885 7.12273 1.77779 -4.4192 -172017 111244 -254292 56832.8 171557 -66239.5 14 10.9643 0.068595
156 1 21.2089 8.94457 1.69572 -4.4233 77896.6 192667 287315 99499.5 251119 508547 14 11.1336 0.0461327
157 1 24.6726 7.06822 56.5038 -4.42277 257402 -303914 450443 -585854 -135720 -250244 14 11.0759 0.0224393
158 1 26.4579 8.82221 56.4737 -4.41908 -43923.3 72996.9 -158474 -199525 374598 -620816 13 11.0131 0.0512733
159 1 26.4973 7.03698 1.7535 -4.43611 316202 -240493 371585 59806.1 147911 -11880.2 13 11.07 0.0340247
160 1 24.8161 8.80805 1.73848 -4.42056 -85330.3 165948 -234858 -96193.3 213407 -204734 15 10.9777 0.0331103
161 1 28.3186 7.03288 56.3778 -4.41076 -20172.2 -129824 -115084 -344685 -214347 -83308.3 15 11.0018 0.0202672
162 1 30.0612 8.82559 56.4819 -4.43388 -97884.2 -484201 7191.99 314015 -330244 87366.4 13 10.8671 0.0307413
163 1 30.045 7.04976 1.73431 -4.41029 -980916 -482693 -702687 114799 120547 14257.3 14 10.6117 0.038783
164 1 28.3071 8.73498 1.83294 -4.42523 -344552 -94972.6 256173 -247587 270068 343333 16 11.0183 0.0583465
165 1 31.715 7.11948 56.4957 -4.40827 -467743 -365249 50430.7 -118095 343165 442410 14 10.8692 0.0087872
166 1 33.3936 8.88841 56.4227 -4.40003 422843 -496946 -69958.7 14835.7 -383947 286318 14 11.0395 0.0089626
167 1 33.6481 7.15742 1.60875 -4.38913 756621 818508 507641 -203214 468056 -137447 15 11.5291 0.0109411
168 1 31.7059 8.87203 1.82316 -4.40258 185645 -375750 -344330 -162258 -213224 -577290 13 10.954 0.0484943
169 1 35.2437 7.07634 56.3945 -4.4174 -147485 569140 102383 -355472 783896 -282196 14 11.1361 0.0292582
170 1 36.9672 8.81401 56.4849 -4.41066 -364231 78480.3 -759450 -116468 -90622.8 85716.7 13 10.8111 0.0165661
171 1 37.099 6.97568 1.67799 -4.39498 -548082 -87745.5 -196786 119339 1.16986e+06 -173966 14 10.9382 0.0545513
172 1 35.3902 8.85408 1.75743 -4.39402 -474819 32129.2 350002 -734044 520159 -10647.2 15 11.1002 0.0588999
173 1 38.7991 7.05683 0.0259833 -4.38396 -334950 -614999 -698814 -30229.1 301937 615971 12 10.8154 0.104643
174 1 40.5486 8.85362 56.4692 -4.41557 208899 -221500 -55645.3 -346066 -203213 694438 14 11.0131 0.0551458
175 1 40.6119 7.09387 1.67971 -4.41843 191351 2782.03 -497671 -280847 -77518 -189389 13 10.9564 0.034284
176 1 38.7321 8.90348 1.66743 -4.43367 784211 449100 180745 150346 138402 -27673.1 15 11.3322 0.0857285
177 1 42.3622 7.11886 56.5088 -4.42109 -79712 269460 -521454 -346029 365008 435680 14 10.9463 0.0419263
178 1 44.1402 8.86276 56.4911 -4.44224 764321 380342 115291 68780 -14582.5 473442 15 11.222 0.0213773
179 1 44.1048 7.14094 1.74401 -4.36813 -1.48844e+06 -607357 -28729.5 130485 -244971 199451 14 10.7038 0.0191296
180 1 42.3593 8.85467 1.77181 -4.39537 -141736 -611401 -550398 486703 -240521 576078 14 10.8285 0.0668559
181 1 45.9163 6.99707 0.110013 -4.35965 -49541.2 -503554 -15003.1 243807 -115516 30964.7 14 11.1045 0.0361976
182 1 47.5909 8.76767 56.4865 -4.42372 306231 45739.5 53748.6 174428 -149974 -38445.9 15 11.0853 0.012526
183 1 47.6113 6.95113 1.80052 -4.40958 218136 -107862 -374978 2147.6 -508460 217276 14 11.0072 0.0519216
184 1 45.9111 8.72566 1.75956 -4.40244 -217652 -293545 -66196.2 -321128 289424 -215729 14 10.9301 0.00583698
185 1 49.3381 6.91624 56.4683 -4.37864 -181980 -346596 -338994 -119148 -794314 -388977 14 10.9613 0.035509
186 1 51.1411 8.85141 56.4643 -4.37289 -296791 291199 -990420 -216346 -894234 -605003 13 10.9565 0.069403
187 1 51.1337 7.003 1.70783 -4.42004 15225.2 75766.5 784653 289493 89864.6 -352748 13 11.2064 0.0602921
188 1 49.3444 8.67625 1.76092 -4.40613 485307 254707 1.27986e+06 599603 218474 112611 15 11.4701 0.00442943
189 1 52.9701 7.04278 56.519 -4.42468 -227544 -130095 278666 -228387 -183644 8963.01 14 10.9739 0.0313086
190 1 54.6256 8.83821 56.4801 -4.43394 3180.09 201619 419662 192736 -171251 250562 15 11.1235 0.0471103
191 1 54.7704 7.10662 1.7549 -4.38838 -536413 -440994 -334530 -9124.57 106121 -415552 13 10.8725 0.0758973
192 1 52.9006 8.80975 1.71683 -4.42858 343800 79746.6 -16354.6 140142 267895 -320840 14 11.067 0.0235525
193 1 0.0112744 10.5992 0.00666576 -4.40183 -188359 -431383 684807 511755 -238193 -493644 14 11.0693 0.0270688
194 1 1.65497 12.3661 56.4959 -4.41942 363114 -196116 -503351 -307823 483277 48713.3 14 10.9455 0.0236287
195 1 1.86537 10.6044 1.71136 -4.40163 162327 -79263.4 -472493 371430 -272946 -262732 15 10.9923 0.0444345
196 1 0.0516694 12.3065 1.7596 -4.41498 -109801 336398 -683854 -48427.4 330101 41359.5 15 10.9155 0.0167783
197 1 3.44396 10.5015 56.3897 -4.41788 177504 571542 -39743.2 -336533 273283 -220746 15 11.1517 0.00103031
198 1 5.34842 12.3665 56.4304 -4.41251 343606 557284 -378102 -172305 -61927.8 193038 14 11.1081 0.00746244
199 1 5.28837 10.5755 1.62614 -4.39858 -21988.6 -537800 1.40527e+06 441863 -71547.5 212752 15 11.2703 0.0463489
200 1 3.61795 12.3603 1.6535 -4.43601 357389 -151316 830856 30358.7 181676 159872 14 11.1905 0.0286615
201 1 7.14223 10.5119 56.3446 -4.3992 -30009.7 269606 -780978 -84072.1 -352732 272395 15 10.9375 0.00625138
202 1 8.83649 12.4508 0.00645729 -4.43632 -4111.81 369970 115331 77212.8 -172556 -98192.6 16 11.0561 0.0040894
203 1 8.7755 10.4689 1.67974 -4.4186 -22230.7 830410 263078 -313044 -158976 -491477 14 11.2281 0.0347324
204 1 6.97491 12.2842 1.68244 -4.43832 217351 684529 582166 -502633 -319731 159612 14 11.2934 0.0591587
205 1 10.5611 10.614 56.4658 -4.42037 76170.1 -221473 805340 -781032 -124934 206861 14 11.139 0.00354086
206 1 12.234 12.3153 56.4396 -4.40346 103996 469014 527317 -131707 -147967 635088 14 11.305 0.0134434
207 1 12.3091 10.6671 1.83946 -4.3659 349662 -103090 -68149.9 250579 493943 -376239 13 11.1774 0.0069461
208 1 10.5505 12.3791 1.72923 -4.41427 -25670.4 361356 -382675 582853 -94764.7 307628 13 11.0005 0.012688
209 1 14.1537 10.6174 56.516 -4.38713 386910 -273577 -588491 473355 -239718 115696 13 11.0016 0.0313998
210 1 15.9008 12.4674 56.4606 -4.41431 -371187 -187451 -351006 -239733 219405 -52770.4 14 10.8553 0.0382646
211 1 15.8682 10.6197 1.6902 -4.42201 -8338.41 358003 -155019 -362315 -220807 -332951 13 11.0387 0.0184101
212 1 14.1097 12.3887 1.64292 -4.39645 593115 -699847 -168195 -304248 172835 221985 14 11.0676 0.0893671
213 1 17.6513 10.5435 56.502 -4.4487 491321 348024 146219 325209 233634 -167646 16 11.1646 0.0636312
214 1 19.4837 12.3725 0.018995 -4.39838 -374893 250183 -621250 346416 360531 -350025 14 10.9397 0.0298517
215 1 19.4537 10.6927 1.78047 -4.41968 -709062 -409874 302345 358857 407797 505685 14 10.9279 0.138063
216 1 17.7271 12.3388 1.75315 -4.41893 -138264 -471731 -48212.8 245174 77784.3 444444 13 10.8797 0.00997008
217 1 21.1047 10.5246 56.4122 -4.3775 332944 -832493 -340209 -58341.3 235572 123938 15 11.0278 0.127449
218 1 23.0013 12.4404 0.0461263 -4.40307 -73022.8 151479 59252.1 395531 229085 183952 14 11.0854 0.00430408
219 1 22.9719 10.6708 1.77791 -4.40769 206211 -457822 312460 -538217 153696 591349 14 11.0531 0.00659907
220 1 21.2414 12.3992 1.66443 -4.42104 -337998 200132 -78828.3 126522 176905 277664 15 10.9652 0.00758839
221 1 24.7604 10.6248 56.4413 -4.44528 58699.5 105874 389849 -196254 -248921 -264251 15 11.0424 0.00741973
222 1 26.454 12.3647 0.0167566 -4.42171 -464345 -565758 -636131 26137.1 273918 146279 15 10.6634 0.00756394
223 1 26.5278 10.5396 1.69132 -4.42013 -198370 -267072 -286199 -240320 527514 -139397 13 10.9101 0.0984949
224 1 24.7303 12.2944 1.74858 -4.40118 -750747 -30215 -795389 -336700 -541102 -163909 14 10.7608 0.0580138
225 1 28.2154 10.5384 0.0183744 -4.40472 -171215 -367551 -945119 -219119 309969 -73696.8 13 10.7414 0.00351143
226 1 29.9871 12.3314 0.106896 -4.39952 -1.0272e+06 118028 -551779 330256 -14838.9 -3232.42 13 10.7503 0.00232507
227 1 29.8969 10.5222 1.81127 -4.38288 -505128 -201400 -247410 373710 439330 -13149.7 15 10.9358 0.0347512
228 1 28.2623 12.3175 1.71606 -4.42296 -189029 108099 72269.1 334821 535870 -59886 13 11.0095 0.0221051
229 1 31.7472 10.6231 56.4758 -4.37417 -371051 -1.19212e+06 -340491 325578 -410111 480217 13 10.7626 0.0460663
230 1 33.5598 12.2899 56.4982 -4.40458 -690926 -58673.7 -442999 454518 311939 586434 16 10.8294 0.0356552
231 1 33.562 10.5277 1.73022 -4.43517 147996 190969 -41609.7 -248890 187441 25672.1 14 11.0199 0.012482
232 1 31.8061 12.3824 1.64422 -4.40214 113497 522666 -545339 518671 -242249 -528733 14 11.1442 0.0938475
233 1 35.2306 10.6019 56.4665 -4.39741 -431709 -923276 -709077 502882 129893 304464 14 10.648 0.00717673
234 1 37.0128 12.3613 0.00784733 -4.40705 -345677 -392989 -663795 348540 -331304 -77131.1 14 10.7514 0.0125669
235 1 36.9703 10.6093 1.66695 -4.37921 -984793 -1.03033e+06 274639 -246213 340948 159390 15 10.7918 0.0428995
236 1 35.2728 12.3167 1.75242 -4.4199 -368999 -657142 -110183 492837 204139 169773 15 10.784 0.0193561
237 1 38.748 10.6398 56.4949 -4.40583 153050 34864.5 -312098 162411 154454 414814 13 11.024 0.0524769
238 1 40.5667 12.3475 56.4757 -4.43315 85948.8 494093 402743 95834.5 184351 322800 14 11.1774 0.0629704
239 1 40.6747 10.6189 1.76019 -4.39132 -174591 792300 239275 393008 618300 79878.6 12 11.2678 0.0463365
240 1 38.7843 12.2712 1.79937 -4.43479 374472 399199 345133 242828 79223.3 -196500 13 11.2632 0.112579
241 1 42.3077 10.5295 0.0766817 -4.36773 164561 5274.51 -121632 -10376.8 807599 1.19165e+06 14 11.1801 0.0371323
242 1 44.2603 12.214 56.4471 -4.38617 482555 -43496 219605 23224.7 -481626 -354504 15 11.241 0.00589402
243 1 44.2609 10.6477 1.85895 -4.38423 956344 385250 -279549 -254568 -87431.1 1.00597e+06 14 11.3378 0.0104456
244 1 42.3373 12.5156 1.7747 -4.39496 354292 28611.4 433812 -151296 -233539 627875 14 11.2722 0.0498583
245 1 46.0435 10.6436 0.0050256 -4.36487 -966768 -371367 123750 511090 306302 -222846 14 10.8943 0.00864194
246 1 47.6613 12.3762 0.0202521 -4.38938 -1.16845e+06 370674 2187.78 -192571 253332 73995.1 13 10.9711 0.0793909
247 1 47.7243 10.4429 1.76427 -4.42 -53103 363398 297778 214620 26143.8 -15092.3 16 11.1374 0.0391059
248 1 46.0245 12.4037 1.74607 -4.39657 -52127.6 -209305 -229241 -404494 -20211.9 -34009.2 14 11.0191 0.0612013
249 1 49.4057 10.6714 56.502 -4.42334 -162359 669839 -138378 532170 -158516 -201737 15 11.0795 0.0173253
250 1 51.1944 12.4834 0.112124 -4.43751 107869 -168374 428763 139930 196111 -245331 14 11.0604 0.0475212
251 1 51.1291 10.5469 1.67549 -4.38891 192743 452855 -651117 322159 -359033 -728737 14 11.114 0.0510824
252 1 49.3077 12.388 1.75137 -4.42365 108957 614116 -387116 181444 -407524 -471583 14 11.0625 0.0250987
253 1 52.8892 10.531 56.4912 -4.39636 -138009 -53264.3 -304663 174693 -389797 8702.03 16 10.9998 0.0342266
254 1 54.8534 12.3108 56.44 -4.41573 524173 -16513.5 85735.6 145594 202473 -42694.2 14 11.1507 0.0163179
255 1 54.6525 10.6131 1.77233 -4.40125 -714542 147876 -145761 422868 236943 -301396 13 10.9301 0.0584957
256 1 53.0763 12.4418 1.69734 -4.38169 -366050 -279588 -204245 -259401 -441970 465470 15 11.0262 0.158603
257 1 56.4408 14.1625 0.0284022 -4.42 -498887 -39623.4 187613 -92382.3 750410 79794 14 10.9441 0.0374649
258 1 1.6809 15.9241 0.0114716 -4.41702 -171193 306523 -33346.1 338188 582581 -556778 15 11.053 0.0192469
259 1 1.82769 14.0708 1.7708 -4.43695 -31446.7 456107 -86343.1 82797.9 -155650 -388820 16 11.0367 0.0158357
260 1 0.15637 15.9685 1.79243 -4.34303 -588094 -852606 -1.55296e+06 -389935 376584 334050 15 10.6277 0.0220125
261 1 3.48526 14.1832 56.4764 -4.41323 -529159 805245 -631520 -82293.9 -143111 79153.2 14 10.9512 0.0325948
262 1 5.31157 15.8999 56.401 -4.42005 408704 -257523 -69517.2 150902 77797.9 -382050 13 11.0151 0.0139302
263 1 5.24575 14.1882 1.63563 -4.42228 -505248 -94972.7 -363789 39746.5 322786 -84247.6 16 10.8581 0.101589
264 1 3.55621 15.9673 1.75746 -4.42019 -35887.7 -356211 -376536 390167 -47653.2 95768.7 14 10.8621 0.031571
265 1 7.05155 14.1361 0.00263519 -4.42379 -526528 -86765 592100 -94647.5 140902 -42801.1 13 10.9951 0.041875
266 1 8.78054 15.8402 56.4526 -4.43858 -17035.4 48492.7 316962 36809.3 408299 140295 15 11.0815 0.0924777
267 1 8.72639 14.0939 1.82407 -4.39919 -258247 66815.1 -479391 224272 170227 -28631 13 10.8946 0.0268903
268 1 7.07031 15.9452 1.70887 -4.43754 118791 54792.5 310345 289363 456552 118760 14 11.0686 0.0492362
269 1 10.5914 14.1364 0.0750323 -4.39752 -561788 -543982 254037 -480035 47914.9 132942 14 10.8913 0.0191102
270 1 12.2592 15.8504 0.0521842 -4.36524 108953 -708508 -283226 25817.8 -80666.4 -24525.3 14 11.0183 0.030619
271 1 12.3198 14.275 1.78727 -4.3812 -456143 246584 -944181 15172.6 -292421 618487 13 10.9163 0.0345903
272 1 10.488 15.9151 1.78008 -4.42825 -174625 -135948 -131691 15654.1 523116 -145557 14 10.8913 0.00662924
273 1 14.1391 14.1612 0.153754 -4.3618 62261.2 -648372 -204886 445055 -13237.1 635538 13 11.0845 0.0676817
274 1 15.8986 15.9077 0.0416422 -4.42218 -504170 308744 -364973 -359516 -452141 52073.6 14 10.926 0.0787807
275 1 15.9307 14.1291 1.73233 -4.39236 -759587 -170196 -1.03053e+06 -594814 -663850 -391119 15 10.6917 0.00387507
276 1 14.0703 15.9873 1.70976 -4.39336 -343375 -565213 -457428 263565 -19756.3 -225371 13 10.8301 0.0644995
277 1 17.6863 14.1263 0.029775 -4.39635 -495986 -757936 -427895 -511197 -525372 -270888 13 10.7749 0.0546394
278 1 19.3994 15.8422 56.4681 -4.40797 211883 171236 -477056 -372122 -687493 420971 13 11.0181 0.00972724