ITEM: TIMESTEP
3000
ITEM: NUMBER OF ATOMS
16375
ITEM: BOX BOUNDS pp pp pp
0.0000000000000000e+00 5.6512000000000000e+01
0.0000000000000000e+00 5.6512000000000000e+01
0.0000000000000000e+00 5.6512000000000000e+01
ITEM: ATOMS id type x y z c_peatom c_satom[1] c_satom[2] c_satom[3] c_satom[4] c_satom[5] c_satom[6] c_coord c_voro[1] c_keatom
1 1 56.4454 56.4886 0.0137143 -4.43261 317260 134379 -27618.2 5556.33 283940 68248.9 14 11.0719 0.058389
2 1 1.66061 1.7572 56.4359 -4.40846 434691 909066 292648 119792 115852 -144885 14 11.3772 0.0307289
3 1 1.71299 56.4815 1.83014 -4.43193 289759 37172.7 547271 -78291.1 -71223.3 125462 15 11.1629 0.0352947
4 1 0.0309634 1.81764 1.75199 -4.45047 357929 428598 379158 171082 78557.5 182719 13 11.175 0.0484576
5 1 3.53733 0.0379284 56.4952 -4.42105 968025 -225935 -92385.9 -153032 -138866 -121488 12 11.0951 0.00786529
6 1 5.40066 1.78736 0.0238087 -4.42861 316656 212876 92969.4 -326798 -240872 78405.4 15 11.1351 0.0562842
7 1 5.36851 0.0213892 1.75143 -4.42372 -117045 -122987 -325339 61751.9 379272 -190377 16 10.9015 0.0559343
8 1 3.56626 1.71574 1.71088 -4.44495 1.32438e+06 930637 918461 233744 120736 -306113 15 11.6388 0.0495729
9 1 7.06215 56.4382 0.0883449 -4.37963 -907804 218498 -506180 -69405 -130841 7325.61 14 10.8806 0.01063
10 1 8.89244 1.7229 56.4062 -4.44063 730662 362158 530827 272644 27744.8 -261782 16 11.308 0.0172377
11 1 8.76915 56.4788 1.73312 -4.40507 -460961 27488.3 -719868 248450 152082 -882022 16 10.8317 0.00424942
12 1 7.09649 1.8195 1.75312 -4.42357 -323150 -145382 130561 145208 -383576 -273273 13 10.9501 0.0358223
13 1 10.6302 0.0443781 56.4784 -4.40938 -895644 -1.00882e+06 -121256 -230420 92952.7 -196159 15 10.6492 0.0490702
14 1 12.3384 1.71998 0.0118304 -4.41558 -271149 -259421 -498439 -247460 -98214.7 -184832 14 10.7977 0.00106936
15 1 12.3348 56.4727 1.75642 -4.4125 -417137 -834202 -751086 331025 135333 26163.1 14 10.6398 0.0406841
16 1 10.6277 1.69245 1.78913 -4.41142 -637683 -467585 -579699 447841 502284 -72461.5 15 10.709 0.0103885
17 1 14.1123 56.4965 0.00123474 -4.40823 -404186 -125861 128024 732491 -29084 589008 13 10.9715 0.0490378
18 1 15.9375 1.81782 0.0801072 -4.43086 551506 509265 466750 16858.6 -407222 -54866.1 14 11.2948 0.0315688
19 1 15.937 0.0105562 1.78528 -4.42942 340702 -18077.3 234991 -611206 -137456 1594.05 14 11.0982 0.0322887
20 1 14.044 1.83089 1.76553 -4.42314 78453.1 -89792.2 -134668 475058 -139119 464625 16 10.989 0.0206399
21 1 17.6998 0.041294 56.4655 -4.43606 299130 883660 499218 50282.9 -143964 -306162 14 11.2947 0.00220895
22 1 19.4385 1.80447 56.5024 -4.44221 383283 628803 179882 -265134 -229245 -32701.1 14 11.1951 0.0373876
23 1 19.3839 56.4333 1.66982 -4.41569 -570227 89717.8 79104.4 -484035 -3609.53 -206396 15 10.9432 0.0378921
24 1 17.6313 1.71482 1.8261 -4.41613 6952.72 438616 231072 -271448 -563400 -28975.8 15 11.1567 0.0357517
25 1 21.1196 56.407 56.4708 -4.41768 -301356 -377200 175266 -124959 283581 -42898.6 15 10.9493 0.0745149
26 1 22.9035 1.63206 56.4446 -4.39107 241953 63544.2 41298.5 607288 -112363 -877148 15 11.1716 0.0222621
27 1 23.0131 0.0280868 1.84328 -4.42736 91937.5 131292 32254.7 242480 -205624 314087 15 11.0885 0.0763013
28 1 21.1098 1.66084 1.75704 -4.42211 456377 435816 273668 -68377.8 -117601 401005 15 11.2955 0.103064
29 1 24.7538 0.0262009 0.0614296 -4.41009 -67774.1 -392153 -343448 89932.2 -275757 139968 14 10.862 0.031315
30 1 26.4913 1.8233 56.5093 -4.4142 -766919 367256 -222707 -306649 -412739 176950 15 10.9342 0.0687496
31 1 26.5156 56.4979 1.71675 -4.40113 -534541 88361.6 56686.4 -847519 164579 58292.9 14 11.0537 0.105755
32 1 24.7514 1.86077 1.70708 -4.41178 -470015 -401571 71049.6 -280334 84228.4 -230155 15 10.8872 0.0235354
33 1 28.1709 0.0340225 56.477 -4.42274 260254 371046 503342 89671.4 586214 -515462 14 11.2861 0.0489383
34 1 30.0285 1.7618 56.4492 -4.39698 109457 -542098 -621205 218069 -548842 346310 14 10.8903 0.06447
35 1 30.0018 0.181559 1.78673 -4.39151 -49451.3 -105046 -284760 114826 233692 352400 15 11.0298 0.0191755
36 1 28.1364 1.69082 1.72396 -4.35377 -682699 -841125 -656115 -164966 -58515.2 279323 15 10.7472 0.0088197
37 1 31.8444 0.051698 56.4866 -4.38666 -929447 75747.5 -335581 -155311 -588541 -401176 15 10.887 0.0431202
38 1 33.5272 1.73807 56.3651 -4.39728 -679067 -369673 86195.5 -841341 480266 -122561 15 10.9061 0.0375578
39 1 33.5585 56.4291 1.68636 -4.41797 288829 94085.4 120275 339537 -346936 -342402 14 11.1339 0.0381159
40 1 31.8607 1.71109 1.683 -4.39931 654158 46988.4 90410.6 -158487 43952.3 -32678.1 13 11.2432 0.0246504
41 1 35.4569 56.5014 56.4797 -4.42514 305460 -765917 156839 -161253 307942 149447 13 10.986 0.0948162
42 1 37.1105 1.744 56.3441 -4.37548 -315164 -769623 -297459 -487764 494233 36300.9 13 10.8717 0.0144784
43 1 37.1914 0.1201 1.84708 -4.39298 -269594 -147843 -211399 -17779 -528474 220408 15 10.9624 0.016637
44 1 35.3709 1.76398 1.66364 -4.43889 389862 -151271 934666 260732 157817 146892 15 11.2814 0.131315
45 1 38.8256 56.5051 56.5061 -4.44924 48888.3 285813 384514 408908 -210137 93288.4 15 11.1204 0.0689846
46 1 40.6236 1.76487 0.00800683 -4.43631 342464 12371.1 682108 -2178.88 -63875.8 -225848 15 11.2143 0.0663873
47 1 40.633 0.0719758 1.79412 -4.44671 423703 368634 480557 113341 388254 40058.1 14 11.1815 0.00399635
48 1 38.8971 1.87371 1.80155 -4.42103 185694 33862 419680 -25386.3 226586 835684 13 11.1488 0.0429529
49 1 42.3761 0.076282 0.0360257 -4.42891 -469025 86673.5 660087 -308053 -41184.9 56304.2 15 11.0815 0.0674762
50 1 44.1078 1.71628 0.0229113 -4.40675 -297812 -301499 -9842.3 -273598 -467927 11308.3 15 10.938 0.0327937
51 1 44.1979 0.0334609 1.7953 -4.41542 255624 -204163 -344753 -233970 -280348 132112 14 10.9713 0.0241711
52 1 42.4286 1.75104 1.83679 -4.39404 -833784 -600709 -512670 -175062 -539603 -36421.7 15 10.6933 0.0411255
53 1 45.9338 56.3686 56.4674 -4.42527 -113985 371003 -42135.8 103908 -346474 -331281 14 11.0471 0.0131169
54 1 47.7287 1.70501 0.0418257 -4.41252 -244902 -290897 -797276 25174.1 459460 205218 14 10.7788 0.0238125
55 1 47.6169 0.010887 1.71971 -4.42175 288303 -506862 -76517.1 324758 83578.6 -48166 16 10.984 0.032003
56 1 45.915 1.74008 1.71397 -4.41224 -331261 -786079 -135753 -10067.8 -299439 495250 14 10.8296 0.105648
57 1 49.521 0.0395562 0.0243018 -4.39719 -636371 -1.49362e+06 -464705 32674.8 -97039.5 162183 13 10.5466 0.016362
58 1 51.2492 1.72954 0.0108379 -4.4227 -430987 -602318 -652491 -352745 -107161 -253991 14 10.6723 0.020322
59 1 51.2551 0.0399445 1.8445 -4.39791 -115381 -662104 -770112 -42542.2 -377487 355175 14 10.7553 0.0251098
60 1 49.4704 1.75055 1.77111 -4.42401 218975 -532565 -410998 278552 -260204 -603816 14 10.8509 0.0148197
61 1 53.0276 56.4811 56.4537 -4.43413 -222975 -106660 501824 503514 -177791 -33642.8 14 11.0308 0.040192
62 1 54.6861 1.7711 56.4359 -4.4035 -380174 -801274 -969015 81037.1 380720 -242377 16 10.6854 0.097498
63 1 54.778 0.0335207 1.75846 -4.43508 -96032.8 20186.6 -444423 236104 279610 337393 14 10.8836 0.0263494
64 1 52.9993 1.80003 1.67608 -4.3718 -1.19258e+06 -420206 236668 -1.102e+06 146449 331235 14 10.8539 0.00757078
65 1 56.4515 3.56018 0.0148129 -4.38594 123910 -934637 -633831 555760 162154 -282427 13 10.8124 0.0306297
66 1 1.73635 5.37331 0.00196463 -4.40883 -313793 -2031.83 -534857 -134170 -80588.2 107091 14 10.925 0.113734
67 1 1.78466 3.61904 1.79115 -4.41089 -158012 313914 144616 -142086 -644.874 23129.1 14 11.1069 0.0308123
68 1 56.445 5.20597 1.67888 -4.38811 -82701.4 -30765 -765319 570537 -207720 -449615 16 10.949 0.0310177
69 1 3.49603 3.62472 0.0478515 -4.417 886595 694303 -79172.2 157870 648805 -481703 14 11.3314 0.0132228
70 1 5.36375 5.39898 56.4844 -4.39301 -543183 -1.16071e+06 -329217 96012.6 49909.6 -314694 15 10.6707 0.0235732
71 1 5.43849 3.59576 1.66369 -4.41368 164213 -56627.2 317764 420635 -152317 -447821 13 11.1209 0.00546204
72 1 3.59669 5.2563 1.76796 -4.39033 -90846.8 -1.1472e+06 -619321 32460.8 -74007.7 -71205.7 13 10.6772 0.00240165
73 1 7.08418 3.58871 56.3703 -4.37808 -423943 -96305.7 -513778 -334737 448141 49875.3 13 10.9142 0.00326233
74 1 8.81424 5.37261 56.4917 -4.39845 -630465 -22945.8 -537817 -314351 80060.2 -225970 14 10.8245 0.0126949
75 1 8.9596 3.46725 1.78753 -4.39689 -191483 39664.9 258411 -431288 2793.66 319897 13 11.1243 0.0106974
76 1 7.17072 5.32534 1.67257 -4.41782 19865.7 360013 -421192 -687326 613001 181275 14 11.0314 0.0421952
77 1 10.6172 3.58855 0.00571313 -4.43172 -62455 590800 -322555 -123313 161456 -407377 13 11.0108 0.00509652
78 1 12.3631 5.35082 56.5031 -4.41713 -605759 -455260 -905.341 -382941 -31966.8 -419006 14 10.7956 0.0261805
79 1 12.3385 3.47278 1.749 -4.43341 -915727 -23358.4 56865.2 277606 236517 -57328.4 15 10.8605 0.0877862
80 1 10.5307 5.27972 1.70376 -4.40134 -257572 -809968 90754.8 -162733 -174227 -96477.9 13 10.8574 0.0101017
81 1 14.122 3.60713 0.123349 -4.40721 -71994.5 -92379.9 -324813 -49206.7 -90671.7 -118840 15 10.9418 0.00526052
82 1 15.8177 5.37376 0.0299974 -4.43049 329246 -536426 -122639 -131166 -12278 150652 15 10.9148 0.0337975
83 1 15.91 3.60681 1.73727 -4.42079 -87883 479498 -552868 -89900.6 124071 24858.1 13 11.018 0.0947227
84 1 14.049 5.32518 1.77537 -4.39687 -190868 -838543 -1.17741e+06 74363.5 -17366.7 -672976 14 10.6259 0.0174437
85 1 17.618 3.61683 0.0234688 -4.40086 -344817 214830 -412872 -380888 -83164.2 -484357 13 10.9406 0.0364878
86 1 19.4777 5.25775 56.4773 -4.42818 1.043e+06 742860 151293 -286839 69859.1 298013 14 11.3918 0.0261539
87 1 19.4475 3.55496 1.73484 -4.43242 673443 422686 54256.3 279007 -275221 212042 12 11.256 0.119471
88 1 17.7066 5.31977 1.76048 -4.43008 699569 60456 214180 -264891 16591.2 -353253 13 11.1578 0.0131195
89 1 21.3055 3.48019 56.4852 -4.4185 324775 483347 667562 -89986.2 101362 -73967.8 13 11.3265 0.0422668
90 1 22.9076 5.37936 56.4866 -4.41358 68522.4 -128247 519246 923327 -114073 -315460 15 11.1417 0.0340695
91 1 22.9549 3.47008 1.75646 -4.41474 -171731 783932 -372805 534777 -11557.9 540464 15 11.1297 0.0887691
92 1 21.2725 5.36638 1.86289 -4.40428 536205 166873 -18282.6 164265 -124472 563900 15 11.1877 0.0203573
93 1 24.6024 3.64986 0.0309975 -4.40142 314400 181102 -619533 305006 -113686 -479920 15 11.0495 0.00438836
94 1 26.518 5.30293 0.0234075 -4.42139 -82036.9 -85100.1 74660.5 184917 260800 -210504 13 10.972 0.0110871
95 1 26.3553 3.59291 1.77443 -4.38041 -435668 -1.17359e+06 -113729 135423 -26991.4 239132 14 10.7637 0.00796323
96 1 24.7587 5.28886 1.73933 -4.38071 -403407 -569533 -37785 904857 92491.3 -279685 14 10.9325 0.038946
97 1 28.239 3.52973 0.106145 -4.4326 134502 -422619 -216922 -51716.6 -76222.2 -330215 15 10.8666 0.0075833
98 1 30.0481 5.29903 0.0570799 -4.39101 -786935 10772.4 -1.37519e+06 266366 167484 -88851.3 13 10.6483 0.00896671
99 1 29.9694 3.5147 1.85439 -4.41871 41499 886299 136513 -124379 206872 655427 15 11.2622 0.0400855
100 1 28.2584 5.3381 1.76515 -4.42943 -192558 -514126 126389 229288 -18975.1 40283.3 14 10.9158 0.103946
101 1 31.7984 3.51623 0.00473052 -4.4371 515792 -158100 38028.5 73972 147432 622539 15 11.0757 0.0163739
102 1 33.5465 5.3022 0.0350139 -4.40222 239523 -1.15977e+06 -81945.7 -11025.9 -190646 188108 15 10.907 0.102862
103 1 33.7439 3.56696 1.71096 -4.34061 -171433 162577 -856258 -140886 1.01639e+06 273769 14 11.0965 0.0641075
104 1 31.686 5.28607 1.85024 -4.39949 21556.3 -192447 319665 63733.4 -615646 382064 14 11.0985 0.0221394
105 1 35.1728 3.49851 56.4422 -4.37216 -211499 143662 -720171 -40559.2 877799 52873 15 10.9985 0.0153639
106 1 37.0534 5.26385 56.4791 -4.42144 731265 161515 381764 705489 204628 -23384.4 14 11.2834 0.0453406
107 1 37.0659 3.5233 1.69768 -4.41825 201219 64363.7 1.06327e+06 674847 330964 597728 15 11.3149 0.0333878
108 1 35.4356 5.23784 1.80481 -4.39034 -361889 162129 532013 -123129 28234.6 228194 15 11.1565 0.0140171
109 1 38.8364 3.53535 0.00406402 -4.40196 -146357 258610 -216066 13805.3 -374543 -88217.1 13 11.0313 0.0133508
110 1 40.6431 5.25931 0.0198178 -4.42204 606472 -53463 190106 301242 -27945.8 -199805 14 11.1564 0.0271056
111 1 40.7465 3.55087 1.73474 -4.41898 353240 -136843 -90209.1 -279931 -206548 51227.1 15 11.0607 0.0586006
112 1 38.9128 5.36426 1.78932 -4.39199 -383763 38965.8 -388702 -504545 101062 370758 15 10.9551 0.00914089
113 1 42.4113 3.43189 56.4472 -4.43407 -51461.1 513070 506204 188876 143528 -339022 15 11.1834 0.0268007
114 1 44.2017 5.2499 56.4752 -4.39465 -779588 215899 -926130 244647 -47516.9 -39177.5 13 10.7883 0.0270794
115 1 44.1102 3.49136 1.77594 -4.41277 -1.00212e+06 -397832 -84722 -483719 61603.6 316057 14 10.7505 0.04102
116 1 42.468 5.31065 1.75971 -4.45379 285646 158467 689972 -259178 18945.2 151203 15 11.1666 0.0347159
117 1 45.8909 3.47331 0.0740942 -4.38627 112990 -881427 -747779 70799 406453 274978 14 10.8127 0.0165646
118 1 47.61 5.27469 56.5012 -4.42819 497429 279840 -158014 -88833.1 600261 -159520 14 11.1076 0.00362374
119 1 47.7233 3.49228 1.76997 -4.43519 -42801 16369.3 -342032 46981.4 -175486 21071.5 15 10.9529 0.10611
120 1 45.8071 5.18393 1.68481 -4.36894 -411586 -555258 -745786 -1580.38 -572716 -173942 15 10.8367 0.0646566
121 1 49.4388 3.45528 56.4689 -4.39278 -188185 -82818.1 -886034 -159612 863416 306812 14 10.8669 0.0225796
122 1 51.2549 5.32467 56.4566 -4.40384 -941196 33416.5 -219480 485880 198399 -341345 14 10.8143 0.0043261
123 1 51.209 3.53757 1.7403 -4.44813 229779 -303410 385068 180072 211523 -181864 16 11.0043 0.0269654
124 1 49.5605 5.30108 1.75561 -4.41995 266020 236182 78872.6 503302 55137 136928 15 11.1623 0.0489627
125 1 52.9633 3.5245 56.4004 -4.39289 -114273 -1.22728e+06 -894900 215954 -495039 -269798 14 10.6458 0.0257335
126 1 54.7682 5.2576 0.0237093 -4.39605 -950614 99379.4 -455715 61922.1 -332475 -146801 15 10.8392 0.0377525
127 1 54.644 3.38372 1.67082 -4.36001 -827133 -867656 -205680 -741927 128454 -32744.2 14 10.8069 0.0474998
128 1 52.9709 5.26885 1.70315 -4.46172 -34603.3 460257 591089 -398629 -38086.3 -57884.3 16 11.1132 0.0210049
129 1 56.3834 7.09408 56.5012 -4.403 -98628.2 -208536 -46180.9 277596 103221 -606049 14 10.9855 0.00771913
130 1 1.84291 8.74575 56.461 -4.43571 503566 120227 182949 57018.9 -168142 92421.8 14 11.1278 0.0140231
131 1 1.8422 6.96775 1.77352 -4.42068 378480 113912 -222338 488510 616706 -112692 14 11.1141 0.0922392
132 1 0.0791751 8.69616 1.76047 -4.43238 795511 330481 -26061.8 113840 22416 -550967 15 11.1838 0.0149286
133 1 3.57467 6.98023 0.0632053 -4.36994 -949575 -355259 -167809 239183 -397881 -102510 15 10.8584 0.0478549
134 1 5.242 8.85668 56.4513 -4.43754 742491 400514 343120 36201.8 141987 670896 14 11.2833 0.013467
135 1 5.26556 7.16141 1.68131 -4.39322 -278525 346598 -1.00978e+06 -212616 -104226 -55416 14 10.886 0.0226798
136 1 3.50205 8.93499 1.75346 -4.41266 -300495 50780.8 241229 491299 89996.7 -264092 15 11.0143 0.0022896
137 1 7.03964 7.08605 0.0185645 -4.42007 -287292 -309087 579277 -541219 166775 265579 14 11.0314 0.0312297
138 1 8.80933 8.77699 56.4529 -4.4404 497870 -86740 -47924.2 70067.3 52062.8 93217 14 11.0533 0.0581946
139 1 8.9502 7.06689 1.81032 -4.4253 -202154 -162315 40368 87228.6 507460 -417963 15 10.9305 0.0129271
140 1 7.10666 8.87057 1.80223 -4.43063 726936 65173.9 263526 -382143 165887 467053 13 11.1989 0.0389187
141 1 10.5741 7.04329 56.4836 -4.43335 -434413 -18232.4 -83080.6 -120175 -39997.6 270301 14 10.9075 0.100681
142 1 12.2996 8.8446 56.4253 -4.43784 269759 344651 -37742.8 276376 -222072 -488307 14 11.1084 0.075791
143 1 12.2683 7.02839 1.78571 -4.43016 45937.5 -502856 -485533 58624.3 -228566 -444492 14 10.8281 0.0538041
144 1 10.6054 8.88163 1.73717 -4.40122 -491379 -665110 19700.2 -24872 201965 -712330 15 10.8475 0.0517351
145 1 14.0008 7.05928 56.4212 -4.42033 -207190 -245092 185811 -146023 -19293.1 -354043 14 10.9728 0.0307737
146 1 15.9019 8.82959 0.0187986 -4.36645 -214490 -1.2678e+06 -816164 849962 399901 -402914 14 10.6933 0.0155333
147 1 15.7692 7.12546 1.78898 -4.41338 119533 -496128 -875334 -133088 396272 393523 14 10.816 0.0397877
148 1 14.0223 8.81546 1.71074 -4.40378 -862732 -1.00294e+06 153982 57251 361717 -226086 15 10.7572 0.0657252
149 1 17.5817 7.13821 0.0368193 -4.40154 531351 -118500 31038.4 216243 -133739 472013 14 11.1912 0.0684148
150 1 19.4748 8.85014 0.0269997 -4.4128 -207364 -6965.44 128275 202096 -129476 292631 13 11.0146 0.0385161
151 1 19.4854 7.07665 1.74622 -4.42944 417560 862426 1.07876e+06 -140165 92753.9 364929 13 11.4771 0.0250432
152 1 17.6225 8.81194 1.86719 -4.43458 644279 13326.1 463984 218203 108092 108163 15 11.2005 0.00985258
153 1 21.2823 7.10996 0.0707094 -4.39954 -60177.5 -300382 524574 367057 386427 273521 13 11.058 0.0137883
154 1 23.0517 8.76543 0.0471512 -4.4188 -220236 434751 475758 -415094 -379277 34302.2 14 11.1844 0.0482009
155 1 23.0967 7.10429 1.86566 -4.40429 121389 -487992 -475255 -100135 -357811 152537 14 10.9019 0.0848499
156 1 21.2305 8.82636 1.85047 -4.42564 417442 -322554 -32960.2 -56515.7 -411920 165119 13 11.0005 0.03058
157 1 24.8685 7.11071 0.0623715 -4.4438 661845 394840 431695 638010 -68506.9 -80033.7 16 11.293 0.0512927
158 1 26.7298 8.82532 0.212445 -4.36281 -116611 -399762 195127 103298 45911.4 45661.7 14 11.1445 0.0168905
159 1 26.5343 7.0434 1.84353 -4.41035 -383093 -76196 -841351 226863 -748689 457913 16 10.8416 0.122035
160 1 24.8096 8.93176 1.7049 -4.38982 -228520 -250275 -965402 -44693.2 -329162 535718 14 10.7749 0.0160956
161 1 28.2765 7.02466 56.4357 -4.38516 -232828 -672806 194712 353896 445848 -266216 14 10.9553 0.019125
162 1 29.9846 8.83692 0.200987 -4.4124 -201324 652410 -297252 -294352 147829 -95262.5 14 11.0985 0.0310298
163 1 30.0145 6.9782 1.8211 -4.42173 90763.2 -809472 332250 308233 -258288 -192343 16 10.9474 0.0189522
164 1 28.3799 8.86541 1.88251 -4.34513 -1.69558e+06 931423 -1.3557e+06 -109762 -383715 85853.8 15 10.8178 0.0882542
165 1 31.8367 7.08635 56.5091 -4.41024 -662296 195202 -252879 -205058 -900595 -60848.9 15 10.9048 0.039612
166 1 33.6023 8.73741 56.4656 -4.43809 77897.8 287935 808354 -548094 -345689 152645 15 11.2128 0.0154021
167 1 33.477 7.00354 1.72663 -4.41396 720574 423636 -382426 -184185 -269558 -194333 14 11.2112 0.0648636
168 1 31.7552 8.88462 1.78196 -4.38883 -886867 -78254.7 -909034 344153 -122332 360948 14 10.7948 0.125326
169 1 35.2862 6.94175 56.5059 -4.42442 -48518.1 -88011.6 828070 18644.2 113863 -63101.9 15 11.1679 0.064681
170 1 37.0628 8.7624 56.4554 -4.39895 403623 653230 -588869 -58863.5 -279463 -54391.5 15 11.2034 0.0579108
171 1 37.157 7.13583 1.76872 -4.39165 365057 -622457 -186268 -42378.8 -279560 198913 14 10.9879 0.00818798
172 1 35.3363 8.81319 1.69572 -4.41759 259484 831114 726243 -114372 -270360 218910 13 11.3709 0.0131962
173 1 38.9491 7.00682 56.4727 -4.42327 20794 131309 -341731 171386 -248352 26838.4 13 11.0033 0.0784289
174 1 40.5512 8.95135 0.0223613 -4.34172 -1.03581e+06 100485 -745669 -551228 -19566.2 127785 13 10.8885 0.0392979
175 1 40.5796 7.01411 1.76447 -4.37689 -926280 -721171 36894.8 -516994 -468385 -16480.9 14 10.8139 0.0288774
176 1 38.9367 8.7607 1.69698 -4.38087 -286548 -87865.4 -370452 -308969 651078 481727 15 10.9968 0.00894478
177 1 42.4642 7.08847 56.4493 -4.41756 519900 247350 -89917.6 -568494 -5483.15 2473.9 14 11.1986 0.0280746
178 1 44.1283 8.80513 56.4982 -4.39229 -763807 -587818 583197 54249.9 -199391 -257289 13 10.9143 0.0189512
179 1 44.2249 7.03374 1.69865 -4.41902 107569 279978 72865.7 -37367.5 185583 -27894.1 15 11.1234 0.0464065
180 1 42.2682 8.79323 1.79415 -4.43664 573333 232353 435767 -497980 145806 476189 15 11.2831 0.119331
181 1 45.8505 7.08544 56.4714 -4.41676 -494910 587777 -130308 275418 462430 225028 14 11.0024 0.0132097
182 1 47.76 8.83764 56.3835 -4.40318 265253 250831 -160530 -314633 420084 -123043 15 11.1811 0.0871691
183 1 47.6606 7.00249 1.70146 -4.42558 874994 675410 209893 149768 475107 46144.6 15 11.3379 0.00491045
184 1 45.9674 8.87162 1.77023 -4.38523 -70047.6 -914514 -328146 -478806 -29349.1 159717 13 10.9411 0.197422
185 1 49.5452 6.99974 0.0425173 -4.40254 209714 -450544 -10045.4 115631 319978 65638.5 14 11.0053 0.00989742
186 1 51.1663 8.80332 56.4847 -4.42038 -231090 -789236 -120596 232922 9731.26 -38931.1 14 10.7768 0.0236558
187 1 51.3128 7.13456 1.75863 -4.40268 -689733 -176188 -188155 -402313 -498207 -35348.2 14 10.8289 0.00444026
188 1 49.4723 8.77468 1.8391 -4.45096 382280 648946 436196 145504 594675 213004 15 11.217 0.00149345
189 1 52.9462 7.11679 56.4089 -4.39776 -100398 -751810 -722633 -407819 571933 155450 16 10.7781 0.0298653
190 1 54.7066 8.78179 0.057773 -4.39902 -467488 -1.04594e+06 12115.5 505292 -4615.31 -331418 13 10.7563 0.0217874
191 1 54.6814 6.98383 1.73693 -4.41273 355897 -612706 -266820 -73341.7 504626 -275094 14 10.914 0.0198984
192 1 52.9824 8.78347 1.8156 -4.39514 -812543 -645901 55994.1 -496176 256189 143452 12 10.7687 0.0156535
193 1 0.0339804 10.4953 56.4924 -4.44522 461615 885003 67080.2 166285 622353 -253259 15 11.2913 0.0510103
194 1 1.8557 12.3574 0.0112377 -4.4145 -85543.4 -140095 770601 216257 115704 486461 15 11.1698 0.0437092
195 1 1.80962 10.5872 1.74181 -4.42957 -216696 173947 405667 715529 264165 249008 15 11.0458 0.016611
196 1 0.00982474 12.3342 1.77886 -4.38132 187524 -959137 -490762 229131 -218974 1.30057e+06 12 10.8911 0.0819319
197 1 3.45976 10.6017 56.4043 -4.41217 -58911.6 -286717 559387 355496 125101 222063 15 11.0939 0.0466813
198 1 5.24146 12.3633 56.4385 -4.43561 -470058 758913 247465 190657 747808 -83540.5 14 11.1409 0.0785967
199 1 5.26134 10.6375 1.91785 -4.33665 -759530 -390855 109199 169864 925814 -62107.7 15 11.0597 0.0275602
200 1 3.64471 12.3323 1.68989 -4.39391 -431375 -499460 -294209 161052 4800.36 401493 15 10.8499 0.0266805
201 1 7.0612 10.5996 0.0422754 -4.42974 318782 -23954.3 147315 -361091 -126647 211740 12 11.0848 0.0353763
202 1 8.73971 12.3357 0.131859 -4.36988 -639338 -394443 -424641 -141066 -275959 -98134.2 13 10.8533 0.0337317
203 1 8.89418 10.5398 1.68667 -4.39937 -360825 -465810 21644.2 -129282 -194873 468096 15 10.8986 0.0155683
204 1 6.98011 12.3829 1.76797 -4.43678 267053 119820 399370 -570650 386161 40540.6 14 11.1476 0.0315922
205 1 10.5831 10.6468 56.3734 -4.41907 61052 370215 -225492 290699 -341201 209104 14 11.051 0.0273907
206 1 12.4532 12.4022 0.0727391 -4.41737 641392 632365 136393 -141920 358528 390346 15 11.317 0.00657397
207 1 12.3583 10.523 1.65217 -4.40431 -575070 -716670 -10415.3 -177047 -247598 -206598 15 10.7793 0.00392144
208 1 10.578 12.3215 1.71956 -4.43367 -140526 606854 372440 -300593 -320824 175874 14 11.1865 0.0912566
209 1 14.2047 10.5673 56.4632 -4.37397 -706897 -642366 -752793 -26973.3 113968 586407 13 10.7485 0.0539172
210 1 15.8816 12.2562 56.4834 -4.40627 29866.1 -580464 -302075 -363290 6653.92 -1.12664e+06 15 10.9195 0.0326602
211 1 15.791 10.3931 1.73406 -4.37553 -374894 -260696 -325423 106090 -63991 -680535 15 11.0036 0.044833
212 1 14.1017 12.2376 1.85389 -4.37357 -447607 -442350 -826265 -74065.7 -506644 156435 14 10.8145 0.0169193
213 1 17.708 10.5125 0.0188049 -4.4343 -260009 -117424 -15788.9 78466.6 -141762 -551274 15 10.9055 0.0243422
214 1 19.3774 12.3548 0.0881562 -4.44324 192050 -93730.1 406136 52010.7 233330 39965.7 14 11.0749 0.0568228
215 1 19.4585 10.5699 1.79624 -4.4107 -523051 399025 -457220 340304 86756.9 -74341.8 13 10.9023 0.0137326
216 1 17.6381 12.2282 1.81414 -4.42661 359720 307662 223978 775844 491269 172379 14 11.1715 0.0143624
217 1 21.2016 10.6021 0.160374 -4.42493 241569 179503 215452 -596888 406642 -44425.1 16 11.1408 0.0256061
218 1 22.9705 12.2975 56.4784 -4.44049 662780 455537 749906 -154299 58332.5 -249691 14 11.367 0.0604884
219 1 22.9895 10.6254 1.91859 -4.37497 101327 -209333 -505442 119183 -536279 -259012 13 11.0229 0.0347533
220 1 21.2048 12.4046 1.7813 -4.41761 11582.2 -652784 -253995 67987.5 -272075 -2695.94 13 10.8274 0.0301529
221 1 24.7746 10.5461 56.5028 -4.402 726173 -115884 -589130 -259975 122258 467618 14 11.1149 0.0967756
222 1 26.5309 12.3588 56.4851 -4.40301 -212475 -397146 -559832 570703 292158 190270 13 10.8304 0.0424638
223 1 26.6049 10.7005 1.71704 -4.39326 110494 -531861 -219442 -318396 311006 328362 15 10.9741 0.00343304
224 1 24.809 12.4134 1.7609 -4.41824 173621 266005 870426 -757297 343069 -149915 14 11.313 0.026464
225 1 28.263 10.7173 0.0108718 -4.37796 -669572 -296942 -460879 60129.2 713530 26782.9 15 10.8597 0.0548424
226 1 30.1149 12.4241 0.0464632 -4.43028 332779 261427 310313 -196897 216173 345462 13 11.1549 0.00632931
227 1 30.0715 10.6361 1.89909 -4.37943 -706433 -1.39264e+06 -716106 220953 -90579.3 -323044 15 10.6125 0.0785476
228 1 28.3645 12.3495 1.80391 -4.4239 -52443.9 106207 120554 -117985 232708 -161177 15 11.0363 0.0135656
229 1 31.7695 10.5741 0.0862799 -4.42549 30873 -161197 -562216 -285749 -440560 318828 15 10.8669 0.0279787
230 1 33.5134 12.3304 0.0716789 -4.39726 -545960 -204488 -1.01993e+06 161245 -318784 -175659 13 10.7259 0.0403308
231 1 33.5287 10.6167 1.75504 -4.43322 233982 188047 356649 -43888.8 -153191 660935 15 11.1442 0.01215
232 1 31.8221 12.3654 1.8303 -4.42884 -183370 159828 36538.3 -295030 235233 337038 16 11.0017 0.0148431
233 1 35.207 10.5988 56.3981 -4.36856 -84512 -475349 -518826 121968 -345598 -291407 14 10.9264 0.0123788
234 1 37.065 12.3519 0.0701427 -4.42189 182255 668156 486335 391456 289188 -258555 13 11.2919 0.0563419
235 1 36.9653 10.6047 1.85332 -4.40527 1.13909e+06 358773 960497 -43728.9 203943 301987 15 11.5712 0.00302204
236 1 35.3048 12.367 1.68799 -4.40794 -552196 267892 180034 282613 -57865.7 215354 14 11.0024 0.0162172
237 1 38.7947 10.6141 0.0340581 -4.42358 554762 98603.9 641079 867741 -249486 22414.5 13 11.2717 0.0336358
238 1 40.7288 12.4545 0.0199725 -4.42587 310621 400090 -78315.5 -243472 90393.8 58104 15 11.1216 0.0138029
239 1 40.6157 10.6524 1.78603 -4.41576 55155.3 -474240 469499 -25518.4 252356 -391701 13 11.0415 0.0611328
240 1 38.9242 12.4091 1.75611 -4.42376 296280 -245815 317813 478438 -355535 -7762.88 14 11.1469 0.141469
241 1 42.3894 10.4597 56.4243 -4.40014 -292660 -283480 436170 -342604 -273864 -30011.5 15 11.0429 0.0358653
242 1 44.1157 12.2472 0.00596566 -4.4308 397851 361293 -65585.7 357128 506375 -272348 15 11.2014 0.0899504
243 1 44.1185 10.4581 1.85267 -4.43222 343969 103460 638760 373309 261545 172912 14 11.2615 0.111224
244 1 42.4334 12.2507 1.80783 -4.42079 -80689.7 1.0572e+06 603287 -138193 366653 210087 13 11.3238 0.0206214
245 1 45.8457 10.5622 0.0200861 -4.41918 -362590 -260012 28626.3 -181254 -383632 110947 15 10.8977 0.0150445
246 1 47.5956 12.2523 56.4269 -4.41222 51046.7 -465323 -30982.2 -315737 115967 -257509 15 10.9432 0.0143485
247 1 47.6292 10.5007 1.63709 -4.35196 -1.26049e+06 -758220 282292 -513748 357838 72724 14 10.8386 0.0109772
248 1 45.9896 12.2304 1.92011 -4.40874 217939 -127837 92874.2 102975 126146 428926 15 11.1356 0.0268207
249 1 49.5016 10.541 0.084387 -4.39466 -818985 -337983 -126669 -224191 5391.44 220364 13 10.7996 0.0040803
250 1 51.1253 12.3586 0.0258115 -4.39213 394438 -382550 -399649 -380067 -498450 104777 13 11.0208 0.0355761
251 1 51.258 10.5443 1.70932 -4.43798 121884 756206 473204 -4158.17 -481516 168.216 16 11.2954 0.0683807
252 1 49.3288 12.2619 1.86269 -4.43611 872306 -66195.6 234055 -175631 458979 415334 15 11.2103 0.0387303
253 1 53.0174 10.5207 56.4684 -4.43165 140918 181970 96649.8 51886.5 -122783 310834 14 11.1161 0.0938459
254 1 54.7363 12.3072 56.4792 -4.42056 194277 408754 -144155 -313761 -157793 170877 14 11.116 0.0636541
255 1 54.72 10.5439 1.75175 -4.42245 188924 599793 140888 -150208 -763701 -78200.9 15 11.2224 0.0624388
256 1 53.0091 12.3209 1.85328 -4.42816 -31496.5 586298 956468 -314656 175394 -68790.7 14 11.2919 0.0194454
257 1 0.0226685 14.0508 0.167736 -4.39385 76829.5 -172331 -125939 -219741 345631 669976 14 11.0143 0.0101451
258 1 1.79617 15.762 0.0655006 -4.40536 -639567 455026 -74204.9 161974 -830070 129577 14 10.9937 0.025464
259 1 1.76471 14.0904 1.94155 -4.3479 -373702 -1.20019e+06 -1.18607e+06 -524551 19554.4 564422 14 10.6831 0.0817712
260 1 56.5056 15.8918 1.8156 -4.43884 810116 -253836 116323 327229 -33888.6 -913.656 14 11.1572 0.10423
261 1 3.50013 14.0868 0.0121666 -4.40761 -411053 -967515 670207 38733.4 -319980 -16108.2 14 10.9125 0.0448733
262 1 5.17816 15.8825 56.4689 -4.42958 510155 -130993 28723.2 266005 4994.79 -263131 14 11.045 0.00331004
263 1 5.2361 14.1442 1.79388 -4.4235 -114870 157483 465318 -129139 350488 -440319 14 11.1125 0.0365456
264 1 3.44038 15.8193 1.78678 -4.40121 -468550 -155394 -600873 -249874 -147272 -183893 14 10.7876 0.0102708
265 1 7.01494 14.1368 0.0109859 -4.42924 552113 -428089 -191038 -191726 -181538 17479.7 12 11.0154 0.110563
266 1 8.79619 15.869 56.497 -4.42689 -191645 489678 229265 351924 -162444 -37543.8 13 11.1177 0.0785765
267 1 8.7584 14.0604 1.80497 -4.41178 771716 -207962 101091 -32242.1 72819.2 -551489 13 11.1564 0.0238467
268 1 7.06052 15.8948 1.73173 -4.41875 324955 -7742.88 -91752.2 186957 386566 -485028 13 11.0805 0.0716685
269 1 10.5185 14.1256 56.4836 -4.43598 879571 411176 676733 188386 145796 -123230 14 11.3939 0.0723093
270 1 12.4127 15.8489 56.4753 -4.43003 274689 678753 468300 -10197.9 -316758 -614463 14 11.2776 0.0148598
271 1 12.3579 14.0351 1.8973 -4.36347 -68966.3 160146 -12029 -189580 -59966.7 -10508.5 13 11.1991 0.0241977
272 1 10.5899 15.8988 1.73041 -4.43267 751872 805363 916554 428933 253787 -233087 13 11.4801 0.0129213
273 1 14.227 14.1139 56.4345 -4.40054 35.512 -54681.2 3396.54 -59891.2 -430497 -547632 15 11.061 0.0161474
274 1 15.9504 15.8992 0.0772023 -4.41454 -113113 -79347.8 219888 51595.4 460381 -368221 14 11.0841 0.0871415
275 1 15.9445 13.9726 1.64215 -4.38007 -41674 114151 -510223 377674 260423 -146896 12 10.9965 0.016716
276 1 14.1291 15.7691 1.67117 -4.40606 -390689 -1612.85 -657725 -369694 -231649 -638303 13 10.851 0.0446808
277 1 17.66 14.0884 0.0544899 -4.41624 -357718 418959 50187.7 307909 1.14753e+06 173530 14 11.0502 0.00846935
278 1 19.4422 15.8518 56.3714 -4.39924 -408878 -72965.5 -21162.8 -127461 297374 -523115 14 10.9777 0.0179876