ITEM: TIMESTEP
5000
ITEM: NUMBER OF ATOMS
82
ITEM: BOX BOUNDS pp pp pp
0.000000 56.512000
0.000000 56.512000
0.000000 56.512000
ITEM: ATOMS id type x y z c_peatom c_satom[1] c_satom[2] c_satom[3] c_satom[4] c_satom[5] c_satom[6] c_coord c_voro[1] c_keatom
4162 1 2.00370000 5.33371000 14.20960000 -4.38037000 394113.00000000 552420.00000000 478826.00000000 -494658.00000000 286709.00000000 -30668.40000000 14.00000000 11.42850000 0.01852780
6623 1 26.43800000 24.70640000 23.00850000 -4.32336000 456122.00000000 683493.00000000 749962.00000000 -235493.00000000 142660.00000000 -5723.54000000 14.00000000 11.96720000 0.07105630
6624 1 24.73860000 26.52830000 22.96920000 -4.16368000 370701.00000000 292722.00000000 769105.00000000 434485.00000000 -82882.70000000 -127665.00000000 12.00000000 13.47410000 0.02605350
6628 1 28.18970000 26.44930000 23.00280000 -4.14742000 264218.00000000 -216742.00000000 159412.00000000 251996.00000000 181517.00000000 506171.00000000 12.00000000 13.24810000 0.05215250
6683 1 23.07960000 28.21670000 23.08770000 -4.26065000 645535.00000000 416025.00000000 463853.00000000 602484.00000000 -296983.00000000 36454.40000000 13.00000000 12.04750000 0.00288866
6687 1 26.58800000 28.24920000 22.97560000 -3.84340000 -790880.00000000 -581387.00000000 284998.00000000 880617.00000000 324379.00000000 96799.00000000 10.00000000 22.10150000 0.06962110
6688 1 24.96280000 29.88930000 22.94120000 -3.95036000 -697534.00000000 -679742.00000000 -124840.00000000 24273.20000000 282123.00000000 -419290.00000000 11.00000000 15.22370000 0.08400540
6691 1 30.00300000 28.16610000 22.99500000 -4.27734000 85270.00000000 -486082.00000000 -881018.00000000 -62986.50000000 80006.50000000 -258790.00000000 15.00000000 11.37700000 0.02414170
6692 1 28.25030000 29.95400000 22.99700000 -4.01476000 -652559.00000000 -233961.00000000 -220808.00000000 -479704.00000000 -97355.30000000 -1874.16000000 12.00000000 15.01500000 0.02446010
6747 1 23.14600000 31.67570000 23.05270000 -4.25583000 -128747.00000000 -681372.00000000 461397.00000000 -1292180.00000000 220658.00000000 -465582.00000000 14.00000000 11.86440000 0.04221720
6751 1 26.50100000 31.64820000 23.04210000 -4.01823000 661784.00000000 -244257.00000000 465270.00000000 -499161.00000000 41664.60000000 -197678.00000000 12.00000000 16.66430000 0.01106670
6752 1 24.65250000 33.39780000 23.01240000 -4.22985000 -836376.00000000 -647060.00000000 -437219.00000000 -1301400.00000000 983868.00000000 -628957.00000000 14.00000000 11.48570000 0.05917130
6755 1 29.97690000 31.63350000 22.98340000 -4.26105000 -542414.00000000 391265.00000000 521990.00000000 -232616.00000000 -450355.00000000 -195191.00000000 14.00000000 12.00800000 0.01236670
6756 1 28.26350000 33.44910000 22.93840000 -4.27564000 252777.00000000 258737.00000000 -573933.00000000 223701.00000000 -133372.00000000 -622656.00000000 13.00000000 11.73160000 0.00621179
7642 1 23.03630000 26.60130000 24.90250000 -4.01397000 771986.00000000 1422280.00000000 1072360.00000000 87248.70000000 510306.00000000 523383.00000000 11.00000000 17.58360000 0.01439990
7643 1 23.00410000 24.69020000 26.50800000 -4.29254000 56764.50000000 -444333.00000000 183107.00000000 235300.00000000 406332.00000000 -218474.00000000 13.00000000 11.49230000 0.06806120
7644 1 21.21240000 26.46010000 26.42950000 -4.28017000 -297781.00000000 158270.00000000 -179239.00000000 113373.00000000 -53947.00000000 448193.00000000 14.00000000 11.45960000 0.03162760
7645 1 24.83710000 24.83120000 24.86090000 -4.16212000 637033.00000000 778162.00000000 806082.00000000 162022.00000000 242351.00000000 43325.40000000 12.00000000 14.27270000 0.06897180
7647 1 26.58330000 24.87950000 26.62890000 -3.84944000 696907.00000000 1023200.00000000 521980.00000000 254459.00000000 258687.00000000 246388.00000000 10.00000000 27.00690000 0.08315940
7649 1 28.22730000 24.84520000 24.74680000 -4.10034000 19530.80000000 128125.00000000 -779321.00000000 -149138.00000000 182883.00000000 263092.00000000 11.00000000 13.29710000 0.01926560
7650 1 29.93540000 26.55770000 24.89550000 -3.97174000 208140.00000000 555706.00000000 413791.00000000 -258942.00000000 -574970.00000000 390097.00000000 10.00000000 19.40340000 0.03779450
7651 1 29.90730000 24.71780000 26.47520000 -4.15152000 82161.80000000 347564.00000000 -247106.00000000 -45884.10000000 389992.00000000 189621.00000000 13.00000000 13.27900000 0.03563780
7656 1 31.64710000 26.62200000 26.56430000 -4.13575000 479953.00000000 784212.00000000 -17557.60000000 -47012.60000000 -697267.00000000 113639.00000000 12.00000000 14.49450000 0.02358840
7705 1 21.18730000 28.32430000 24.83000000 -4.27572000 29479.50000000 660691.00000000 198986.00000000 71941.70000000 251719.00000000 340140.00000000 13.00000000 11.81050000 0.01569870
7706 1 23.12370000 29.94280000 24.85700000 -3.83245000 1426020.00000000 1543390.00000000 1220990.00000000 -52872.20000000 -298650.00000000 -24065.90000000 10.00000000 25.58380000 0.03594720
7708 1 21.35330000 29.95360000 26.68150000 -4.12359000 941453.00000000 -71911.40000000 597674.00000000 -251215.00000000 63947.10000000 -491706.00000000 11.00000000 14.34450000 0.02617570
7714 1 29.91110000 29.78030000 24.76040000 -3.69225000 781784.00000000 1003870.00000000 711648.00000000 215555.00000000 37103.10000000 -515372.00000000 8.00000000 32.10850000 0.07658820
7717 1 31.78880000 28.21280000 24.67050000 -4.28423000 -825307.00000000 36580.40000000 128141.00000000 -232357.00000000 190337.00000000 411847.00000000 14.00000000 11.32270000 0.01209020
7720 1 31.76770000 29.84380000 26.59990000 -4.03306000 458279.00000000 653669.00000000 622958.00000000 -142246.00000000 268456.00000000 340643.00000000 10.00000000 16.69690000 0.02821350
7770 1 23.09540000 33.41020000 24.71300000 -4.19088000 -632453.00000000 -543483.00000000 -1650090.00000000 -746425.00000000 357685.00000000 -40902.20000000 13.00000000 11.44150000 0.04605020
7771 1 22.96910000 31.87390000 26.48720000 -3.85451000 -513976.00000000 -186497.00000000 -216149.00000000 20678.30000000 -398674.00000000 614658.00000000 12.00000000 20.58840000 0.04815140
7774 1 26.50860000 33.47330000 24.74760000 -4.00836000 57165.70000000 32274.50000000 316086.00000000 -43987.20000000 290310.00000000 41049.60000000 12.00000000 16.19000000 0.09167230
7776 1 24.78110000 33.49640000 26.42760000 -3.84456000 109722.00000000 -428343.00000000 -120603.00000000 -459532.00000000 -211912.00000000 180185.00000000 9.00000000 22.04800000 0.02956950
7778 1 29.91790000 33.50660000 24.71390000 -4.15935000 -198588.00000000 528499.00000000 -69737.10000000 -160995.00000000 295138.00000000 151254.00000000 12.00000000 13.22760000 0.07813150
7780 1 28.28970000 33.57240000 26.47760000 -3.71938000 574716.00000000 -303440.00000000 -286827.00000000 -497302.00000000 283481.00000000 -333293.00000000 10.00000000 24.97360000 0.05883110
7781 1 31.72340000 31.56970000 24.82850000 -4.27049000 441730.00000000 338108.00000000 433857.00000000 350284.00000000 5082.05000000 -178933.00000000 12.00000000 12.29320000 0.00510523
7784 1 31.72180000 33.35760000 26.45220000 -4.25526000 -79463.80000000 691177.00000000 -706520.00000000 56166.70000000 928704.00000000 -394516.00000000 13.00000000 11.91270000 0.01706610
7839 1 26.35650000 35.34570000 26.40320000 -4.26728000 -184379.00000000 -297973.00000000 -565981.00000000 -432529.00000000 -312601.00000000 -52406.50000000 14.00000000 11.56910000 0.03966470
8666 1 23.08290000 26.59620000 28.10150000 -3.67319000 607400.00000000 806726.00000000 1593300.00000000 330200.00000000 31403.80000000 -366797.00000000 8.00000000 32.01480000 0.00247280
8667 1 23.03710000 24.71690000 29.89380000 -4.29959000 -244155.00000000 301391.00000000 466802.00000000 306410.00000000 -89667.90000000 -397265.00000000 14.00000000 11.85000000 0.02508750
8668 1 21.29950000 26.42370000 29.88360000 -4.19675000 396831.00000000 -644645.00000000 117467.00000000 -183962.00000000 -475201.00000000 190195.00000000 13.00000000 12.01080000 0.01454770
8669 1 24.84210000 24.68010000 28.22280000 -4.00650000 -233686.00000000 43972.20000000 -149639.00000000 -8218.36000000 312691.00000000 -156678.00000000 11.00000000 14.64320000 0.00918664
8671 1 26.54480000 24.81420000 29.92800000 -3.99578000 -119975.00000000 607247.00000000 128637.00000000 108421.00000000 -216977.00000000 -207043.00000000 10.00000000 17.86550000 0.05142050
8673 1 28.38050000 24.58160000 28.27150000 -3.85392000 -745258.00000000 -388690.00000000 -1126500.00000000 379092.00000000 -124942.00000000 179090.00000000 10.00000000 20.01270000 0.04637460
8675 1 30.04480000 24.74370000 29.92110000 -4.11927000 41029.40000000 81629.10000000 457192.00000000 -219505.00000000 -876059.00000000 -29364.60000000 12.00000000 13.92500000 0.01513290
8677 1 31.79150000 24.79030000 28.15980000 -4.29830000 -290490.00000000 84657.20000000 316289.00000000 12343.90000000 320354.00000000 64821.40000000 14.00000000 11.76680000 0.06376540
8680 1 31.71220000 26.43670000 30.03220000 -4.14240000 -365236.00000000 -428678.00000000 645341.00000000 -57115.90000000 172971.00000000 362230.00000000 13.00000000 13.44260000 0.06374600
8729 1 21.34310000 28.15920000 28.29100000 -3.95778000 231227.00000000 -297145.00000000 105645.00000000 191733.00000000 214237.00000000 712563.00000000 12.00000000 15.34350000 0.00445531
8732 1 21.15520000 30.00070000 29.89990000 -4.15543000 180484.00000000 98538.90000000 471772.00000000 -46821.80000000 112708.00000000 456981.00000000 13.00000000 13.18330000 0.01551420
8741 1 31.81130000 28.24580000 28.43340000 -3.86638000 -30786.40000000 21773.20000000 -179518.00000000 -146270.00000000 -839697.00000000 206286.00000000 12.00000000 22.32750000 0.00821367
8744 1 31.80080000 29.96180000 30.12920000 -4.12584000 141476.00000000 -1117590.00000000 -746796.00000000 -287618.00000000 -35695.30000000 -379741.00000000 12.00000000 13.08600000 0.10725900
8793 1 21.25140000 31.69810000 28.25650000 -4.23934000 36735.40000000 -1183520.00000000 -545917.00000000 39360.50000000 -125518.00000000 -202168.00000000 13.00000000 11.46390000 0.01622320
8794 1 22.92000000 33.59880000 28.29790000 -4.21711000 -1156520.00000000 -700246.00000000 332703.00000000 190500.00000000 419096.00000000 -27605.00000000 14.00000000 11.68490000 0.05373690
8795 1 23.06130000 31.78940000 29.96640000 -3.98135000 111179.00000000 -29119.70000000 614072.00000000 28987.60000000 -192623.00000000 112009.00000000 10.00000000 21.10150000 0.03481080
8800 1 24.65850000 33.58810000 30.07400000 -4.00532000 -601591.00000000 -166454.00000000 92571.00000000 -325260.00000000 504473.00000000 -123227.00000000 13.00000000 16.39000000 0.04046040
8802 1 30.09950000 33.43030000 28.15250000 -4.11391000 154381.00000000 543286.00000000 105077.00000000 -412404.00000000 179303.00000000 156235.00000000 13.00000000 14.19080000 0.01258210
8803 1 30.08760000 31.80440000 29.99460000 -3.99324000 330116.00000000 644883.00000000 416042.00000000 -459835.00000000 69039.90000000 -5686.29000000 12.00000000 23.34110000 0.02067040
8804 1 28.13730000 33.48260000 29.87360000 -3.99722000 1750050.00000000 686921.00000000 1200150.00000000 -443131.00000000 -164740.00000000 141481.00000000 12.00000000 21.14260000 0.00509282
8805 1 31.85230000 31.62930000 28.32820000 -4.14259000 -940320.00000000 302163.00000000 -189457.00000000 -3813.42000000 326076.00000000 122357.00000000 13.00000000 13.14070000 0.02684830
8861 1 24.58540000 35.27230000 28.08100000 -4.26016000 -246709.00000000 -208224.00000000 -5763.76000000 -187030.00000000 -149122.00000000 -85562.70000000 13.00000000 11.80450000 0.01470740
8863 1 26.33720000 35.36430000 29.89550000 -4.27974000 177453.00000000 -412725.00000000 877364.00000000 -175977.00000000 92094.80000000 -37375.20000000 14.00000000 12.00390000 0.06259730
8865 1 28.15100000 35.23330000 28.12310000 -4.26217000 892548.00000000 -46762.10000000 90260.90000000 -92027.70000000 163891.00000000 -410968.00000000 13.00000000 12.08280000 0.02731360
9690 1 23.09720000 26.46010000 31.73850000 -4.00313000 644665.00000000 -157592.00000000 -42283.20000000 249449.00000000 -124696.00000000 978064.00000000 11.00000000 16.06900000 0.00859450
9693 1 24.78710000 24.76520000 31.59690000 -4.22077000 -759211.00000000 -961189.00000000 225824.00000000 -91689.20000000 394482.00000000 -562091.00000000 14.00000000 11.66930000 0.06545480
9694 1 26.38050000 26.48830000 31.75850000 -3.71123000 439645.00000000 -69272.10000000 561603.00000000 -431075.00000000 108416.00000000 222279.00000000 9.00000000 30.29550000 0.04188050
9696 1 24.71460000 26.52360000 33.55110000 -4.24755000 -549215.00000000 130442.00000000 -141720.00000000 -414787.00000000 -638887.00000000 -10237.60000000 12.00000000 11.67510000 0.03545480
9697 1 28.10010000 24.71080000 31.77210000 -4.25322000 12197.40000000 -120643.00000000 -134412.00000000 -134069.00000000 -69430.50000000 26319.30000000 12.00000000 11.80910000 0.01381160
9698 1 29.95140000 26.45060000 31.76340000 -4.01151000 357198.00000000 905973.00000000 -589171.00000000 101904.00000000 105713.00000000 379692.00000000 10.00000000 17.95890000 0.03314910
9700 1 28.23050000 26.58590000 33.43950000 -4.26820000 -194829.00000000 140744.00000000 279786.00000000 -324471.00000000 191631.00000000 -113014.00000000 13.00000000 12.06170000 0.01802730
9753 1 21.25070000 28.23010000 31.76510000 -4.27674000 5262.78000000 477875.00000000 530037.00000000 33954.10000000 41703.40000000 325733.00000000 12.00000000 12.06060000 0.03075410
9754 1 23.00940000 29.94600000 31.64130000 -3.98786000 1126530.00000000 1270040.00000000 1155150.00000000 -155590.00000000 171942.00000000 102092.00000000 11.00000000 20.11300000 0.03664840
9755 1 22.98550000 28.26840000 33.52940000 -4.28062000 -192351.00000000 173712.00000000 162462.00000000 -44906.00000000 -167798.00000000 -447845.00000000 13.00000000 11.80540000 0.03063350
9759 1 26.48630000 28.36230000 33.49860000 -4.02545000 330673.00000000 869487.00000000 792885.00000000 590941.00000000 -151403.00000000 71060.90000000 10.00000000 16.67430000 0.02131590
9760 1 24.80430000 30.02370000 33.50480000 -4.13582000 694340.00000000 324516.00000000 893643.00000000 143642.00000000 233067.00000000 121597.00000000 11.00000000 13.61870000 0.04259700
9762 1 29.98940000 29.98890000 31.81520000 -3.97518000 -192813.00000000 476341.00000000 -653527.00000000 -362614.00000000 -136374.00000000 -411905.00000000 9.00000000 20.69490000 0.14093500
9763 1 29.99240000 28.23470000 33.55550000 -4.26911000 -685682.00000000 -415114.00000000 -455721.00000000 175699.00000000 243648.00000000 425061.00000000 12.00000000 11.50900000 0.07520730
9764 1 28.32310000 30.03240000 33.58340000 -4.10088000 -808092.00000000 -978374.00000000 -1030580.00000000 35075.60000000 -247404.00000000 170311.00000000 13.00000000 12.92090000 0.02888680
9765 1 31.80960000 28.21400000 31.82250000 -4.27599000 -111218.00000000 -504945.00000000 -488292.00000000 129871.00000000 -267129.00000000 641073.00000000 14.00000000 11.63000000 0.03866310
9821 1 24.79540000 31.75120000 31.70980000 -3.98292000 1101530.00000000 288046.00000000 336563.00000000 1829.65000000 -252440.00000000 210195.00000000 9.00000000 22.03200000 0.09077080
9822 1 26.44840000 33.61770000 31.78820000 -4.24900000 -278721.00000000 -157085.00000000 626716.00000000 -306959.00000000 336444.00000000 -182961.00000000 14.00000000 11.86490000 0.04532320
9823 1 26.57970000 31.70750000 33.47160000 -4.24926000 -202850.00000000 945609.00000000 -98644.00000000 61052.30000000 -578705.00000000 -28582.50000000 13.00000000 12.22870000 0.01636160
9825 1 28.34240000 31.98620000 31.81840000 -3.98170000 -611265.00000000 42381.50000000 -564706.00000000 -719103.00000000 -615148.00000000 -331364.00000000 12.00000000 17.87510000 0.04935250
