ITEM: TIMESTEP
3000
ITEM: NUMBER OF ATOMS
52
ITEM: BOX BOUNDS pp pp pp
0.000000 56.512000
0.000000 56.512000
0.000000 56.512000
ITEM: ATOMS id type x y z c_peatom c_satom[1] c_satom[2] c_satom[3] c_satom[4] c_satom[5] c_satom[6] c_coord c_voro[1] c_keatom
4774 1 33.49590000 37.16410000 14.08490000 -4.27330000 91769.50000000 -168371.00000000 775483.00000000 -379133.00000000 32300.30000000 586539.00000000 13.00000000 12.01230000 0.04123850
4776 1 31.72860000 37.17360000 16.03640000 -4.11702000 -186486.00000000 -267555.00000000 507551.00000000 265053.00000000 102432.00000000 504327.00000000 11.00000000 13.65020000 0.02065830
4780 1 35.28320000 37.10660000 15.82770000 -4.17776000 26260.80000000 162710.00000000 422693.00000000 -317468.00000000 762.20500000 78582.60000000 12.00000000 13.07620000 0.01905970
4834 1 30.03870000 40.63480000 14.12350000 -4.29853000 440777.00000000 143462.00000000 -40711.00000000 94588.30000000 -172407.00000000 -390888.00000000 12.00000000 11.87270000 0.09889620
4835 1 30.06210000 38.91820000 15.94890000 -4.14730000 239949.00000000 931167.00000000 536810.00000000 355241.00000000 282327.00000000 465175.00000000 12.00000000 14.21250000 0.03904010
4837 1 31.73940000 38.79770000 14.18910000 -4.12940000 -729117.00000000 -224913.00000000 274587.00000000 -436681.00000000 306594.00000000 -798.25100000 12.00000000 12.88170000 0.05120150
4838 1 33.41800000 40.48300000 14.17630000 -4.15848000 1042390.00000000 719108.00000000 991331.00000000 -276169.00000000 7370.15000000 -358562.00000000 12.00000000 14.16010000 0.05469120
4841 1 35.24100000 38.78970000 14.05510000 -4.25157000 -63394.50000000 -510976.00000000 -434057.00000000 -531910.00000000 174308.00000000 730238.00000000 12.00000000 11.52340000 0.00382847
4843 1 37.05280000 38.83540000 15.85990000 -4.25492000 460698.00000000 -985354.00000000 -483649.00000000 112001.00000000 256407.00000000 -244881.00000000 14.00000000 11.53570000 0.02030120
4844 1 35.19080000 40.53350000 16.01130000 -4.01574000 614420.00000000 1019340.00000000 1210200.00000000 1363.59000000 -397271.00000000 10405.90000000 11.00000000 16.84070000 0.02138640
4899 1 30.14200000 42.32740000 15.90300000 -4.27857000 549942.00000000 963147.00000000 204687.00000000 -330005.00000000 -329676.00000000 92629.90000000 13.00000000 12.30940000 0.01007100
4901 1 31.75610000 42.42130000 14.09280000 -4.29970000 -246051.00000000 350364.00000000 19421.30000000 -354284.00000000 323893.00000000 292200.00000000 14.00000000 11.56180000 0.01726990
4903 1 33.45330000 42.31060000 15.90540000 -4.16840000 290368.00000000 752533.00000000 444437.00000000 -142114.00000000 486728.00000000 95687.40000000 12.00000000 13.44280000 0.00945209
5458 1 15.90030000 19.44980000 17.70310000 -4.28431000 54572.00000000 1325120.00000000 187679.00000000 -94642.60000000 -197636.00000000 76987.10000000 13.00000000 12.22020000 0.04498830
5460 1 14.23460000 19.37160000 19.39460000 -4.12584000 257796.00000000 -128293.00000000 254536.00000000 -324477.00000000 557295.00000000 -143832.00000000 12.00000000 13.75210000 0.02164960
5464 1 17.56960000 19.45170000 19.42570000 -4.29416000 -105585.00000000 101053.00000000 -467486.00000000 -755895.00000000 -130572.00000000 -35215.00000000 13.00000000 11.84830000 0.03857070
5518 1 12.39990000 22.98190000 17.61820000 -4.26642000 -417078.00000000 84522.50000000 351247.00000000 -163728.00000000 715740.00000000 -498618.00000000 12.00000000 11.94730000 0.02915520
5519 1 12.32950000 21.12670000 19.48600000 -4.16684000 238539.00000000 1390670.00000000 1059510.00000000 -462968.00000000 399876.00000000 139841.00000000 12.00000000 13.96640000 0.02871230
5521 1 14.02100000 21.11490000 17.70620000 -4.13612000 432894.00000000 237648.00000000 -140843.00000000 117485.00000000 -475138.00000000 45573.50000000 11.00000000 13.83530000 0.04147540
5522 1 15.99950000 22.84830000 17.61120000 -4.11902000 -13174.10000000 301011.00000000 -850240.00000000 236054.00000000 -57428.70000000 -424836.00000000 13.00000000 13.44580000 0.04299960
5525 1 17.73830000 21.17370000 17.61360000 -4.28303000 -291612.00000000 -830737.00000000 -405537.00000000 581450.00000000 240491.00000000 -613974.00000000 13.00000000 11.29440000 0.03329630
5528 1 17.59800000 22.80840000 19.36390000 -4.15092000 561235.00000000 1115420.00000000 -52820.60000000 -102570.00000000 -159016.00000000 -336399.00000000 13.00000000 14.46280000 0.03504580
5583 1 12.29250000 24.63090000 19.47070000 -4.24605000 -262924.00000000 -245951.00000000 -760323.00000000 -319858.00000000 -751601.00000000 -314889.00000000 12.00000000 11.62520000 0.00988709
5585 1 14.10060000 24.64120000 17.59450000 -4.24797000 122116.00000000 360879.00000000 -219433.00000000 -560645.00000000 137893.00000000 -355738.00000000 13.00000000 12.08580000 0.02269750
5587 1 15.81070000 24.74580000 19.33860000 -4.15992000 461948.00000000 699327.00000000 437928.00000000 -152397.00000000 274868.00000000 -121462.00000000 11.00000000 13.47660000 0.05029510
5794 1 29.97870000 37.18390000 17.65730000 -4.28806000 54627.70000000 380916.00000000 -165375.00000000 -26888.60000000 505778.00000000 107021.00000000 12.00000000 11.82170000 0.04139010
5798 1 33.48120000 37.18990000 17.75040000 -3.99069000 427539.00000000 611877.00000000 -92960.50000000 -105306.00000000 -494275.00000000 -416846.00000000 10.00000000 15.25180000 0.03122200
5800 1 31.81900000 37.10070000 19.47150000 -4.32190000 856231.00000000 1330440.00000000 512829.00000000 6651.31000000 355574.00000000 31670.40000000 14.00000000 12.24560000 0.00338961
5802 1 37.04170000 37.14570000 17.59120000 -4.31557000 230688.00000000 410439.00000000 -332758.00000000 288778.00000000 27986.90000000 618707.00000000 13.00000000 11.77380000 0.01814170
5804 1 35.30260000 37.15310000 19.29940000 -4.28309000 -121859.00000000 306828.00000000 201580.00000000 511127.00000000 -28886.10000000 324152.00000000 15.00000000 11.85070000 0.01702450
5858 1 29.91110000 40.67240000 17.76680000 -4.15334000 -626503.00000000 -433127.00000000 -211213.00000000 172908.00000000 92881.90000000 -127891.00000000 13.00000000 12.45450000 0.03881500
5859 1 29.96600000 38.86430000 19.45480000 -4.30550000 511674.00000000 104697.00000000 277978.00000000 -257807.00000000 449724.00000000 -468686.00000000 13.00000000 11.89510000 0.02256610
5863 1 33.67930000 38.91910000 19.40390000 -4.02305000 543740.00000000 491039.00000000 461925.00000000 498267.00000000 -554390.00000000 -348917.00000000 12.00000000 15.10590000 0.04603470
5864 1 31.78390000 40.51850000 19.39100000 -4.14979000 390323.00000000 231124.00000000 285530.00000000 243605.00000000 234956.00000000 358722.00000000 12.00000000 13.96780000 0.01423790
5866 1 37.11240000 40.53450000 17.50380000 -4.23003000 210231.00000000 -529173.00000000 -1159340.00000000 -16612.90000000 28973.70000000 565962.00000000 13.00000000 11.53520000 0.00721763
5867 1 37.04530000 38.95620000 19.32510000 -4.26935000 -134565.00000000 -474861.00000000 625710.00000000 969940.00000000 32934.40000000 203477.00000000 14.00000000 11.85590000 0.06931730
5868 1 35.48720000 40.62540000 19.47610000 -4.11744000 -1300680.00000000 -1023510.00000000 174961.00000000 825203.00000000 -829381.00000000 92303.00000000 14.00000000 12.22160000 0.13312200
5925 1 31.74700000 42.26710000 17.62780000 -4.10950000 68351.50000000 763868.00000000 -296995.00000000 -315804.00000000 145616.00000000 275206.00000000 11.00000000 13.78730000 0.05302320
5927 1 33.63230000 42.25900000 19.36760000 -4.29546000 515607.00000000 933650.00000000 100761.00000000 4229.16000000 514604.00000000 155390.00000000 14.00000000 12.23920000 0.03364180
5929 1 35.24870000 42.32330000 17.66190000 -4.26094000 264513.00000000 123473.00000000 -352230.00000000 70616.00000000 672913.00000000 167159.00000000 12.00000000 11.79740000 0.01748970
6478 1 12.41600000 19.31370000 21.16100000 -4.27999000 650630.00000000 -12342.90000000 156949.00000000 -640101.00000000 -140323.00000000 -333252.00000000 14.00000000 12.03600000 0.05521130
6482 1 15.90090000 19.40570000 21.22540000 -4.17418000 355510.00000000 96565.70000000 314186.00000000 66508.10000000 130110.00000000 -233635.00000000 12.00000000 13.56390000 0.02326720
6484 1 14.12380000 19.36860000 22.99080000 -4.28022000 -78241.70000000 683774.00000000 -123095.00000000 -34919.70000000 665829.00000000 249578.00000000 12.00000000 11.85660000 0.00796776
6542 1 12.49800000 23.00180000 21.21330000 -4.09131000 218425.00000000 -439985.00000000 -55499.90000000 -668298.00000000 -22295.10000000 243565.00000000 11.00000000 13.92450000 0.06006770
6543 1 12.32060000 21.17170000 22.87630000 -4.29680000 574416.00000000 583645.00000000 454809.00000000 266690.00000000 -54706.90000000 599242.00000000 12.00000000 12.26370000 0.01308340
6547 1 15.84270000 21.18870000 22.92040000 -4.15527000 575277.00000000 603114.00000000 481299.00000000 -152880.00000000 -291437.00000000 -178873.00000000 10.00000000 14.29440000 0.01774560
6548 1 14.13240000 23.00380000 23.01690000 -4.15249000 403121.00000000 301707.00000000 -538638.00000000 396147.00000000 -889962.00000000 -478061.00000000 12.00000000 13.07390000 0.06025820
6549 1 17.72390000 21.11510000 21.20310000 -4.15847000 -45802.50000000 -460055.00000000 -122950.00000000 143535.00000000 -282835.00000000 -573588.00000000 14.00000000 12.82380000 0.06448890
6552 1 17.60600000 22.89250000 22.78430000 -4.25099000 1503200.00000000 -222277.00000000 245834.00000000 -369281.00000000 137233.00000000 -199804.00000000 14.00000000 12.39970000 0.04245400
6609 1 14.17830000 24.62670000 21.10020000 -4.12981000 -77873.90000000 -155865.00000000 233870.00000000 -748984.00000000 420303.00000000 102483.00000000 11.00000000 14.08290000 0.07931490
6611 1 15.93250000 24.80570000 22.92150000 -4.25985000 -990221.00000000 -307773.00000000 -474496.00000000 641897.00000000 -147447.00000000 -81837.70000000 12.00000000 11.37290000 0.03517940
6613 1 17.59770000 24.60180000 21.14290000 -4.29109000 1071810.00000000 768187.00000000 459677.00000000 101135.00000000 611382.00000000 687897.00000000 15.00000000 12.38790000 0.05782570
