ITEM: TIMESTEP
28500
ITEM: NUMBER OF ATOMS
1313
ITEM: BOX BOUNDS abc origin pp pp pp
105.6 0.0 0.00.0
0.0 105.6 0.00.0
0.0 0.0 105.60.0
ITEM: ATOMS id type x y z SurfaceDistance
1368 1 38.5393 42.3274 1.79822 2.3175398779
1485 1 40.3073 42.1873 0.0760304 2.0969671527
105893 1 42.4448 42.8246 1.61099 2.8439283001
1488 1 38.1558 44.5521 1.20886 1.8095622043
1486 1 41.658 44.9837 1.2571 1.8990777336
5217 1 47.8965 45.4414 1.79318 1.1399971696
1617 1 49.4356 45.576 0.0730398 1.4624085961
1607 1 39.7969 46.5206 1.36338 2.4225887935
1500 1 45.5794 46.2089 1.59471 2.2826805216
1737 1 47.4596 47.8616 1.35388 1.5371863647
1618 1 49.6286 47.2371 1.94519 2.5803620604
2205 1 36.3919 62.6002 1.06338 2.9511782377
2207 1 39.6553 62.7292 0.993953 2.9996637089
2208 1 37.9173 64.4513 1.18936 0.9589395896
2202 1 36.1961 66.2609 1.16844 1.2848784483
2325 1 39.4514 66.2116 1.08953 1.1840690819
2322 1 37.8057 68.0344 1.26254 0.9808182721
2326 1 39.4083 69.6497 1.36934 2.9258409596
1366 1 40.6849 42.0125 2.72082 2.6756995735
5089 1 42.7481 42.0133 3.79304 2.8968331771
1487 1 39.6196 44.319 3.14759 1.9760891429
5086 1 39.8361 46.2394 4.71443 1.5697061703
1492 1 41.9425 44.2439 3.55694 1.7689759345
5209 1 41.4532 46.71 3.031 2.6531289261
2204 1 36.4136 64.4808 3.00287 2.981665333
2323 1 37.8073 66.2252 2.86895 2.2666754262
2327 1 39.6452 64.351 2.76558 2.9593448868
2328 1 39.4262 68.0169 2.97176 2.9669602231
5087 1 40.8437 42.0957 5.4717 1.6908146158
8686 1 40.934 43.702 7.21649 1.5293341997
5092 1 42.72 43.6446 5.76748 1.3263971738
5088 1 38.7706 44.2803 5.61379 2.0419914028
5207 1 40.4857 45.8908 7.03545 2.2500000175
5211 1 42.2063 45.9354 5.28677 1.7166381787
8809 1 42.8684 45.5462 7.56093 2.9534828718
8951 1 58.4373 48.8483 8.85337 2.8301848764
8945 1 56.8206 50.5053 8.83518 2.2203183044
16014 1 46.3845 47.0469 12.7227 2.6662733478
12542 1 55.2198 48.7586 12.4032 1.4347988669
12545 1 56.8512 48.8084 10.6461 1.2133486324
16145 1 56.7802 46.9736 12.3895 2.8678158153
12546 1 58.5179 48.8684 12.3736 1.2226098256
12549 1 60.3302 48.8396 10.7237 2.9281466478
16142 1 53.5797 50.5053 12.4623 2.5846796284
12422 1 55.1397 50.5565 10.6441 1.0002787314
12550 1 58.7197 50.5241 10.6103 0.9533160621
12671 1 60.4776 50.3876 12.5472 2.5702868357
9063 1 53.6663 52.3491 10.7763 2.9872385725
12667 1 55.5484 52.0946 12.4536 1.1939077281
8948 1 57.0314 52.224 10.5684 1.2809326193
12666 1 57.2571 53.8749 12.2172 2.7408498293
12669 1 58.7787 52.0371 12.3707 1.2689371235
12296 1 46.2215 45.3265 14.4551 1.009131141
16013 1 44.971 47.3614 14.6784 1.2060823257
16015 1 48.1444 47.0763 14.508 1.2504499885
16020 1 50.0362 48.8294 14.3163 2.9854152935
12548 1 56.9713 48.8477 14.1638 1.1860474517
16030 1 60.0234 48.5052 14.4417 2.915686742
16129 1 43.2398 49.1509 14.7298 2.9816002594
16133 1 45.0555 50.6751 14.5736 2.7782442768
16140 1 46.7474 48.9954 14.473 1.2638143666
19857 1 48.5372 50.5854 14.3563 2.9194767087
16148 1 55.449 50.5545 14.18 0.8584533729
12552 1 58.8489 50.5344 14.2176 0.9923758118
16146 1 57.2066 52.2061 14.2139 1.2515957422
16500 1 46.8965 60.2194 15.2115 2.6891706998
16378 1 50.7921 59.5659 14.0883 2.8257637677
16504 1 48.721 61.9257 15.2811 1.1951008297
16616 1 47.0951 63.7371 15.3526 2.8496999944
16623 1 50.5633 61.964 13.6049 2.9316103216
16617 1 50.6599 63.5665 15.325 2.4124122723
15896 1 46.2037 43.5555 16.0918 2.2975505866
19496 1 44.7266 43.803 18.0843 2.9507345182
19494 1 48.1324 43.5567 17.7988 2.9318929504
19611 1 44.7807 45.5729 16.3198 1.1690802032
15894 1 48.0775 45.1585 16.0668 1.2316811443
19613 1 46.5513 45.4441 17.8642 0.8883884252
19612 1 43.135 47.3625 16.4313 2.6964701505
19610 1 44.9092 47.3725 17.9539 1.377976755
19733 1 48.4366 47.18 17.7483 1.3625967703
19614 1 50.0355 47.1239 16.1059 2.5831219612
16143 1 55.4082 48.8286 15.9601 2.9115398318
16131 1 44.9201 49.19 16.422 1.0281333898
16135 1 48.515 48.9566 16.1238 0.97247909
16136 1 46.9744 50.8104 16.2352 2.2144570274
19734 1 46.8459 49.0443 17.8876 1.1962469515
19740 1 48.6342 50.6697 17.9239 2.9599339388
19746 1 57.1723 50.5442 15.9695 2.2162257277
19865 1 55.6179 52.3861 15.8552 2.8777944369
16152 1 59.073 52.279 15.7931 2.9748337209
16368 1 38.1488 58.5066 15.6434 2.9798007449
19967 1 39.8004 58.5416 17.3298 0.922208588
16372 1 41.5346 58.4591 15.5704 2.9754177326
19846 1 41.457 56.785 17.3382 2.9546836393
19980 1 49.0396 57.834 17.773 2.6192398437
20085 1 38.1948 60.3612 17.453 1.2852496238
16487 1 39.8994 60.2549 15.601 2.2277732587
20089 1 41.6202 60.313 17.183 1.3538869284
20094 1 45.1071 60.2755 17.1227 2.8885078748
20095 1 47.4012 59.5311 17.7102 0.9793670314
16380 1 49.0799 59.6695 16.0003 1.2450286179
20097 1 50.7904 59.5232 17.5951 1.1592552382
16501 1 50.9248 61.1921 15.7767 0.9729160146
16379 1 52.603 59.3491 15.818 2.9902353236
19984 1 52.7632 60.9537 17.3941 2.4328813803
16483 1 38.233 61.9709 15.6248 2.9197304884
16488 1 38.1704 63.8623 17.4207 2.9825690717
20086 1 39.981 62.1005 17.3003 0.9279070824
20098 1 46.9889 61.921 16.952 1.2334877937
20217 1 48.796 63.6408 17.0044 1.0401937726
16619 1 50.9793 62.7862 17.5958 1.1853035311
23333 1 46.7531 47.0652 19.6338 2.6205924716
23566 1 38.2967 58.4738 19.1505 1.2264150159
19972 1 39.9172 56.5565 19.1073 2.5078150305
19966 1 41.5445 58.7574 19.0177 1.182510231
23574 1 47.2768 57.8537 19.4867 2.9849546642
23685 1 36.4315 60.2089 19.1937 2.8034025006
20093 1 43.3312 60.3555 18.9453 2.756441433
20100 1 45.5216 59.6 19.4 2.8131661983
23694 1 47.3082 61.2186 19.3689 1.0059259118
20099 1 50.935 61.1377 19.3814 1.0215532679
23697 1 49.0891 59.5872 19.4491 1.2579910463
23581 1 52.5369 59.309 19.1315 2.9167033469
20082 1 38.1863 62.008 19.2242 1.2937035812
20207 1 39.9036 63.8532 19.075 2.3218349209
20092 1 41.508 62.1053 18.9661 1.2668961064
20211 1 45.1759 62.0286 18.7874 2.9234261152
20213 1 46.9498 63.7375 18.8465 2.7076338678
20215 1 49.2307 62.8369 19.2743 1.2789842074
20219 1 52.7364 62.6688 19.2739 2.965929507
22972 1 42.3675 40.1607 22.9129 2.4350040148
23087 1 40.3748 42.2349 22.6903 1.8019858056
23089 1 42.4085 41.999 21.2858 1.8315031793
23091 1 44.3432 41.757 23.1138 1.4149173447
26686 1 41.7216 44.1207 22.0211 1.4387511227
26690 1 43.7316 44.0369 23.2327 1.507916498
23096 1 45.0957 43.7107 21.4026 2.9363851155
23568 1 38.2359 58.4681 22.5196 2.9622277754
23689 1 39.8742 58.3537 20.7613 0.9969117138
23570 1 41.7008 58.6244 22.367 2.840778505
20087 1 38.3847 60.2386 20.9063 1.2383743982
23687 1 40.018 60.3267 22.6441 2.3640930922
23693 1 41.5123 60.3385 20.7272 1.1729090501
23700 1 49.052 61.3769 21.0648 2.5621459056
20208 1 38.2268 63.8752 20.818 2.9989626357
23688 1 38.2966 62.0564 22.5536 2.9263840946
20088 1 39.9458 62.1152 20.8435 0.9441872997
23692 1 41.621 62.1525 22.5491 2.9843168525
26687 1 40.4018 42.3319 24.9986 2.4755642081
26689 1 42.6924 41.6413 25.0677 1.9760812843
26691 1 44.4439 43.4267 25.3367 2.7108241126
26706 1 58.2354 43.4972 25.044 2.6695776112
26805 1 39.881 44.4087 23.9752 2.6546073318
26692 1 42.0604 44.0802 24.9246 1.7829890372
26809 1 41.852 46.0332 23.6304 2.916649265
26712 1 59.9632 45.1326 25.0826 2.9750179729
30305 1 54.8077 41.6653 26.8226 2.9840530568
26708 1 56.4633 43.4314 26.8995 1.2724002997
26705 1 58.327 41.7639 26.8269 1.2876863592
26707 1 59.9944 43.4391 26.7071 0.9448555864
26704 1 54.7573 45.177 26.9428 2.9234054076
30306 1 58.2956 45.1844 26.9271 1.2236693441
30310 1 61.7314 45.2419 26.7332 2.9244442657
30425 1 56.4942 46.9127 26.9541 2.901267014
30781 1 50.6687 57.8975 26.5058 2.9680476893
30901 1 53.9494 57.8598 26.4074 2.6901615144
30784 1 52.2997 58.1706 28.3587 1.4466365892
30899 1 52.2471 59.7032 26.3797 1.450869819
30902 1 54.6249 60.0553 26.7496 1.6618085738
31021 1 52.9138 62.0176 26.605 1.1219221379
27427 1 58.1641 63.5311 26.6434 2.6851942498
34629 1 59.8301 63.37 28.486 1.2638255666
34632 1 58.3451 65.195 28.4868 0.9150329194
30192 1 58.2514 39.9732 28.3783 2.4484934307
30303 1 54.7496 43.3978 28.6144 2.3108093493
33901 1 56.5459 43.5739 30.2883 1.2447274986
30309 1 56.4734 41.7105 28.5849 0.9461758758
33786 1 58.2885 41.7345 30.2689 1.2625204023
33909 1 60.0459 41.782 28.5089 1.1653990757
37629 1 60.0434 43.5336 30.2077 1.2157554167
33910 1 61.8944 43.465 28.4071 2.3465822435
30308 1 56.4721 45.1916 28.5998 0.9028214478
30427 1 58.3619 45.3012 30.2136 1.2282172524
30312 1 59.9986 45.1828 28.4751 1.1323267517
33902 1 56.5635 46.9075 30.4399 2.9797698541
30432 1 58.2774 47.1092 28.6076 2.476884128
34260 1 49.0259 56.3832 30.168 1.6122876672
30780 1 47.4149 58.1262 29.8907 2.5405664543
34377 1 50.6281 57.9142 30.0452 2.44285
34381 1 53.0134 57.7096 30.5833 2.844587893
30905 1 54.5782 57.6914 28.6079 2.5517056334
34497 1 50.5079 59.8685 27.9896 1.2779014419
34498 1 51.5469 60.0797 30.1179 1.1643111138
30904 1 54.586 59.653 30.2663 1.7381357427
30908 1 56.3425 59.8377 28.5215 2.8131354733
30907 1 56.5204 61.6554 30.1514 0.9088358083
31027 1 58.1923 61.5805 28.4792 1.204938826
30909 1 58.0745 59.8159 30.1998 2.21182968
30906 1 59.9672 61.4468 30.1123 0.9999699694
31019 1 51.3641 61.8958 28.5341 1.3012631719
34621 1 53.1365 61.701 30.2225 1.1466166934
31024 1 53.0131 63.5397 28.4585 2.4128265405
31023 1 54.604 61.7652 28.4144 1.4633405967
31025 1 56.5504 63.4196 28.4607 1.3575155824
31028 1 54.8697 63.3828 30.292 2.5803246888
31031 1 61.6503 63.361 30.0183 2.61667212
34746 1 56.5862 65.1582 30.094 1.2036953691
38346 1 58.2788 66.9339 30.1331 2.2105264437
31149 1 59.9589 66.8811 28.307 2.9679835611
34752 1 59.9011 65.0806 30.1608 1.1429069209
33769 1 44.3571 39.9743 32.2881 2.9330996188
37496 1 47.8268 39.9323 32.2135 2.9516288573
33770 1 46.1503 41.6636 32.1692 2.3395507936
33892 1 44.4432 43.417 32.3767 2.9443444126
33894 1 47.8463 43.4523 32.2948 2.9833267434
33906 1 58.3008 43.4502 32.0132 2.4892609092
34264 1 49.7934 55.8645 32.3251 1.6185824295
37977 1 47.2823 56.6517 31.8777 1.7252549942
34380 1 46.9129 59.0003 32.0362 2.8132698661
38094 1 51.3499 57.6655 32.3348 2.5475073766
34494 1 49.7122 59.4515 32.1725 2.512683679
30903 1 52.9156 59.7212 32.1096 2.9594860785
34508 1 58.2471 61.6095 31.8812 1.2195246767
34509 1 59.8591 59.7241 31.9052 2.9824313624
34626 1 56.6233 63.4579 31.9513 1.369059287
38110 1 60.0108 63.2958 31.8157 1.3529277032
38465 1 56.5791 66.9697 31.8631 2.9549316052
34749 1 58.2737 65.2001 31.9695 0.9981069043
38227 1 60.0307 66.9109 31.7665 2.917741111
37370 1 46.0948 38.1993 35.6605 2.6662295102
37373 1 46.0511 39.8773 33.9594 1.0020527914
33776 1 44.4176 39.935 35.8029 1.363106529
37384 1 47.8266 40.0825 35.6928 1.2050333694
37486 1 42.7949 41.7125 35.7766 2.3413373911
33891 1 44.5788 41.7058 33.9718 1.0944882944
33896 1 46.2355 43.5581 34.1594 1.1912078747
41216 1 44.5236 43.4645 35.8499 1.2348336615
33775 1 47.7936 41.7457 33.9882 1.0963678627
41091 1 48.0466 43.447 35.8174 1.2398364457
44813 1 49.6475 41.8649 35.8267 2.2738887375
41214 1 46.2473 45.2933 35.9425 2.5588781103
37858 1 48.0963 55.8582 34.089 2.8652969668
34496 1 49.4899 57.7052 33.7982 2.2979901101
34627 1 58.3244 63.2599 33.7156 2.7542521409
44689 1 46.165 40.0744 37.5883 1.2575243847
37495 1 49.6309 40.0208 37.52 2.926389054
41092 1 44.4357 41.802 37.5765 0.9373851412
41210 1 46.3448 43.4332 37.5098 1.1734399217
44687 1 48.1023 41.7843 37.5864 1.0006623036
40976 1 44.5483 43.4965 39.2936 2.9851155693
41099 1 46.3541 41.8544 39.2928 2.3110500076
45195 1 63.6096 52.2785 46.2971 2.5956349642
52275 1 68.4867 57.7288 46.1445 2.9495012377
48795 1 70.0715 57.8335 44.4284 2.9641802072
48550 1 71.8758 57.9551 46.1117 1.1338023028
41608 1 68.399 61.2037 46.1214 2.9347428963
52518 1 70.1385 59.6132 46.1326 0.8663176347
52528 1 71.8969 61.2797 45.871 1.3352926365
48925 1 71.9198 59.426 44.2922 2.3199671261
45328 1 73.6706 59.5396 45.9839 0.9247302833
59224 1 63.4975 50.6114 48.0515 1.4742100337
55388 1 59.3673 51.8356 48.589 2.6719296649
48785 1 61.8099 52.2673 48.0174 2.3253462681
51916 1 63.7384 53.7404 48.1866 1.4613997386
56237 1 65.5628 52.0283 48.2645 1.129619829
48658 1 58.4396 54.2138 46.2071 2.8502476037
63062 1 56.7791 54.3962 48.0055 1.5781826556
52399 1 58.521 55.9899 48.0718 1.5867897476
52403 1 71.96 55.9805 47.8431 2.5319571068
56100 1 53.4165 57.8307 47.973 2.9344755235
59586 1 70.1295 57.818 47.8923 1.2561970806
48684 1 73.7181 57.7648 47.7462 1.3089641056
52273 1 68.3216 59.3748 48.0172 2.4431312153
41598 1 70.129 61.1883 47.9408 1.2752957884
52526 1 73.5262 61.2791 47.7617 1.2591235397
48805 1 75.4891 59.5724 47.6509 2.4647429721
45444 1 71.7304 63.0025 47.7124 2.6718052805
45436 1 68.3335 66.5872 47.9067 2.9975302731
48923 1 70.0741 64.817 47.7012 2.430046221
52400 1 64.3451 48.1266 50.1083 2.9450359205
55637 1 62.6049 49.9454 50.1895 1.5543990876
52637 1 65.8808 50.1128 50.0886 1.6071886541
70269 1 57.2864 52.5765 49.4414 1.6547932123
48675 1 59.2999 52.8852 50.8772 1.5092641338
59601 1 61.855 52.3681 50.342 1.7389724737
48665 1 65.2632 53.5917 50.0634 1.511106597
52030 1 67.6004 51.9427 49.9228 2.9471285925
59578 1 53.5491 56.1261 49.818 1.4428593234
59944 1 51.7775 56.1761 51.4519 1.1213714472
55995 1 55.2793 54.3748 49.7437 2.7866023163
66657 1 57.3463 54.4462 51.0746 1.904661093
51905 1 56.9174 56.3699 49.7135 2.1913792349
66666 1 60.05 53.9926 48.2413 1.8700958106
52397 1 59.2867 56.6401 50.4664 1.8090446538
59706 1 60.9135 54.6995 50.6498 1.5818286523
48542 1 50.0158 58.052 51.5345 2.512622853
63061 1 51.7283 57.8494 49.7307 1.379849261
48669 1 55.0339 58.089 49.9462 1.590699974
45084 1 71.954 57.7569 49.5904 1.2452026776
63310 1 53.3079 59.8086 49.8265 1.1976204406
56233 1 51.6172 61.5849 49.798 2.9825887832
59458 1 51.6479 59.7879 51.4117 1.1093926552
45549 1 55.6542 60.4412 50.4395 2.7927048463
52519 1 70.2548 59.4506 49.6714 1.1413780269
52523 1 71.9981 59.6187 51.3936 2.2836940161
52639 1 71.9289 61.3034 49.661 0.9990484735
49047 1 70.1692 61.1968 51.4108 2.5414462884
52521 1 73.6378 59.4541 49.5032 1.1429897072
45309 1 66.7562 63.0728 49.8335 2.951606546
56242 1 68.4423 62.9701 51.527 1.2702969109
45199 1 70.142 63.1129 49.6872 1.1699387279
52765 1 71.9272 63.0186 51.3414 1.2411843718
49048 1 68.4804 64.7563 49.7138 1.1141631097
59960 1 68.4136 66.5482 51.4699 1.3664089505
52507 1 70.1354 66.5702 49.6167 0.9645966151
56362 1 71.8851 66.4172 51.403 1.2766207716
49164 1 71.8334 64.7363 49.489 1.1944176604
49167 1 73.6216 64.7018 51.3054 2.3497764901
56364 1 70.2671 68.2293 51.4471 2.6534343769
52503 1 61.8053 50.445 52.3842 2.76518996
41475 1 64.2556 50.0559 51.8053 1.0101687391
66794 1 63.6325 50.8483 54.0189 2.8553004221
48670 1 63.5896 52.5925 51.9307 1.3377799386
55996 1 65.9511 51.7946 51.7478 1.2372148804
48800 1 65.3844 52.6666 54.0131 1.8459085597
45069 1 67.8541 51.8278 53.7502 1.7447625499
52164 1 67.3435 53.6868 51.8586 2.6109126643
55763 1 69.5697 53.6327 53.7227 1.558778057
70620 1 53.535 54.4538 51.431 2.6037021821
59470 1 53.6728 56.4603 53.0063 1.6551929026
52157 1 55.4095 56.2308 51.4194 2.1704585968
55882 1 59.3878 54.7553 52.4778 2.3225168608
70386 1 66.9462 55.5084 53.4309 2.1443352246
59687 1 41.0753 57.9251 53.306 2.9968249602
70737 1 51.8726 58.1719 53.1042 1.5285273943
63181 1 55.8697 58.4537 52.3983 1.4626622534
59568 1 39.2155 59.7578 53.205 2.5976127862
56348 1 53.861 60.1492 52.3439 1.5070752944
56240 1 70.1277 62.9625 53.2096 1.2616542631
49163 1 66.7518 64.8049 51.5708 2.3005340928
49042 1 66.801 66.4938 53.3876 2.9566478193
56245 1 68.3575 64.6924 53.3284 0.9676580022
52642 1 70.1284 66.3053 53.2182 1.1829172078
59834 1 71.9772 64.7004 53.1903 0.9573758897
66313 1 64.752 53.3968 56.1773 2.5841101172
66676 1 66.9197 52.2087 55.9733 1.4734052981
59605 1 68.947 53.8466 56.1151 1.8191550365
59488 1 69.6682 51.6803 55.4929 2.7500506403
77822 1 50.2449 56.5822 56.5874 2.7230135707
66911 1 54.0355 56.6436 56.2079 2.8445063514
63065 1 57.4778 56.561 56.1157 2.8882898609
55755 1 64.421 54.9842 54.2038 2.9750056839
48683 1 66.57 54.9924 55.8506 1.642913359
55881 1 68.8623 55.8107 54.8094 2.3118669964
56083 1 37.4515 57.9824 56.6625 1.2259422669
48656 1 39.326 57.9113 54.9488 1.4325856947
59584 1 52.1045 58.2896 56.3117 1.1739795888
66789 1 53.8898 58.3579 54.4985 2.7226759957
63072 1 59.2722 58.5533 56.0701 1.9335594724
52512 1 61.062 56.7266 56.0226 2.7086166381
55964 1 35.5765 59.7 56.6174 2.3251731872
56088 1 37.4765 59.6684 54.9816 0.8865232308
59211 1 37.4314 61.3241 56.6487 1.1803289696
59927 1 39.2304 61.4352 55.0133 1.3386669995
55972 1 41.0108 59.6843 54.8498 0.9309222253
59340 1 41.0715 61.5207 56.6403 1.25751656
66772 1 42.7832 61.5573 54.9118 2.9426526295
55975 1 50.3687 60.081 56.4883 1.373414602
59332 1 52.0958 60.0992 54.5264 2.7520466887
52627 1 54.0499 60.1478 56.3202 1.2913435654
70502 1 52.2077 61.93 56.2655 1.3532173273
59589 1 57.4045 60.2451 55.9468 2.9754718748
70507 1 60.8638 60.2699 55.9627 2.6945467314
56322 1 39.2436 63.2755 56.6305 2.880551239
63050 1 50.2551 63.5313 56.2444 2.7130082104
74237 1 55.5907 61.9086 56.0689 2.9842164579
63445 1 70.2077 64.6761 55.073 2.3944916335
63681 1 71.9235 66.4702 54.8264 2.92268614
56455 1 49.9464 70.5552 56.4275 2.3243264014
52859 1 52.1439 71.3947 55.4612 2.0182782784
63170 1 49.6088 72.2683 54.7428 2.5461868564
60177 1 49.4572 73.9191 56.5177 1.8352195975
56464 1 51.5456 73.8406 54.818 1.6442006354
60178 1 51.3466 75.5841 56.5203 2.3422061805
62830 1 66.7159 53.5951 57.8713 2.9030634345
52363 1 39.3185 56.357 56.7825 2.6993111599
59830 1 52.2637 56.5214 58.0355 2.1003803492
77718 1 55.8273 56.5501 57.9447 2.9469140807
45307 1 57.657 54.9551 58.0725 2.7925350509
62818 1 61.1461 54.9262 58.0715 2.9416475489
63161 1 35.641 57.9831 58.3588 2.9870719928
59336 1 41.1411 58.055 56.6041 1.2423908026
59807 1 39.3935 58.1158 58.4899 1.3867376774
63068 1 50.5002 58.3659 58.1762 0.8444036562
56000 1 53.9791 58.2733 57.9619 0.8744022467
66671 1 57.5191 58.4582 57.8682 1.2082001604
66550 1 59.3365 56.6849 57.8793 0.7622730033
59837 1 61.0103 58.4944 57.843 0.9855765803
59684 1 35.7482 61.4849 58.3089 2.9204409724
59682 1 37.4209 59.6771 58.4296 0.9832990216
59576 1 39.2653 61.4318 58.2147 1.2570717917
59086 1 41.217 59.8892 58.4122 1.011767207
59330 1 42.9024 59.7228 56.5829 2.2297699033
63175 1 48.4914 59.9685 58.0801 2.7687450264
55748 1 55.7599 60.1355 57.9381 2.4970639515
67038 1 59.2535 60.3342 57.8665 0.8449635723
52376 1 48.3993 63.5744 58.1828 1.3171605288
77828 1 50.2873 61.8509 58.1898 0.5697359745
63297 1 53.9776 61.9953 58.0869 1.0773357426
74106 1 52.2091 63.7563 57.939 1.2631015535
63076 1 57.4436 61.9025 57.7956 2.8763154258
63655 1 48.2256 66.9487 58.1843 2.979753696
66895 1 50.2169 65.2667 58.2166 1.2343185343
70385 1 53.8157 65.4073 58.039 2.9880770738
52746 1 51.9186 70.8679 58.0492 1.7802574576
63774 1 49.6865 72.1688 58.1636 1.6084024318
56577 1 51.3307 74.0179 58.2198 1.7570070233
52860 1 53.1662 73.5473 56.6781 1.4495630255
62600 1 60.5966 42.8803 61.478 2.2925010417
62466 1 62.4355 41.174 61.2549 2.888181126
73881 1 62.2403 44.6128 61.5205 2.8555972367
66556 1 56.0114 49.3662 61.8227 2.5028781901
63661 1 54.0165 56.573 59.8501 2.8289930044
70506 1 55.9747 54.8387 59.9701 2.8502944182
63200 1 55.8327 56.7326 61.5505 0.7934365209
70160 1 57.8551 54.9173 61.7582 2.4413844889
56097 1 57.6064 56.6516 59.8074 0.7653354613
70148 1 59.4701 54.8088 59.8428 2.476915125
62838 1 61.3671 55.052 61.5073 2.3650164317
63422 1 52.2461 58.3274 59.7169 1.225256038
66547 1 54.0366 58.3906 61.6053 1.9910887503
66551 1 55.8738 58.4777 59.663 1.106042147
63202 1 61.1619 56.7824 59.6639 1.1368773132
70037 1 59.496 56.7404 61.4901 0.2943826821
67039 1 61.1091 58.5755 61.4825 0.1588160508
77821 1 63.047 56.8553 61.5073 2.6207871079
63321 1 62.9335 58.4725 59.4811 2.5007992934
59811 1 39.3229 59.8494 60.1294 2.6187688645
62952 1 46.7995 61.7954 61.6787 2.8688569996
77710 1 50.4492 60.0916 59.8092 1.4153346723
67147 1 52.3048 60.0228 61.6343 2.8578608092
66797 1 53.9303 60.0828 59.7412 1.3680084189
52032 1 55.749 60.2599 61.5125 0.7537118916
70524 1 57.6244 60.154 59.8089 0.5989177572
66913 1 59.3195 60.3082 61.5144 0.1970554796
73760 1 60.9482 60.2082 59.6441 1.0244826292
77823 1 62.8949 60.3372 61.3077 2.5293796062
59816 1 48.4893 61.797 59.8766 1.0538806932
63056 1 46.546 63.4936 59.9764 2.3105223118
63659 1 48.6445 63.5062 61.6471 1.0678903836
56340 1 50.4149 61.7922 61.7781 1.5737215082
63429 1 52.1363 61.9415 59.8668 0.6746071444
59956 1 53.9678 61.9088 61.4524 2.8472854264
60061 1 52.179 63.615 61.6505 0.9933247217
84905 1 53.8954 63.7536 59.8727 2.1976668971
56337 1 55.749 61.9868 59.6962 2.8637861241
67143 1 57.5134 62.0513 61.4979 2.3746211603
74118 1 59.1761 62.0788 59.6893 2.4311929727
77113 1 60.9719 61.9417 61.3253 2.1506515836
59940 1 48.4702 65.3462 59.8787 0.8322787612
60057 1 46.578 65.1598 61.7463 2.9037237836
67137 1 48.4925 66.9834 61.6955 2.8646265135
59815 1 50.2661 65.248 61.6172 1.0620609476
56103 1 52.1348 65.4836 59.8266 1.1722142124
59820 1 50.1998 67.0007 59.8444 2.4088328217
56214 1 51.6087 72.2821 59.9126 2.6072880057
66063 1 58.2454 40.9014 63.6411 2.9678781207
69781 1 59.9752 38.8546 63.7129 2.7476566438
73514 1 60.5889 41.0541 63.0297 1.3492725008
62697 1 62.5189 39.2522 63.026 2.8260935081
62460 1 62.4913 42.7887 63.0761 1.1176024895
69774 1 52.2205 44.7075 64.0635 2.7948295879
70278 1 60.1812 44.0795 63.482 1.3081422312
77345 1 53.9777 46.4452 63.7867 1.5106844056
66318 1 52.221 47.9093 63.6484 1.6212447907
55384 1 54.1661 47.744 61.8096 2.9359305877
73982 1 56.3127 47.5387 63.4438 1.2808946618
59346 1 54.297 49.3349 63.6981 1.1358123198
70257 1 56.0948 51.1203 63.6174 1.1335673421
70629 1 57.9958 49.2967 63.5417 1.0778843141
70273 1 54.2458 53.064 63.433 2.7615254879
70630 1 57.8282 53.0977 63.4435 2.4309406302
67031 1 54.0863 56.6496 63.3721 2.8930888892
63172 1 55.9824 54.8902 63.3201 2.0401830757
84789 1 59.7109 54.8956 63.3622 2.3818177526
70145 1 55.9479 58.4585 63.3062 1.0982915704
77243 1 57.8424 56.7738 63.2816 0.6901487385
77473 1 61.3647 56.8456 63.2696 1.0555714997
88134 1 63.0203 58.5911 63.2281 2.1868936091
80936 1 54.0601 60.1112 63.3484 2.7277953546
77714 1 57.6771 60.2532 63.3508 0.6907153674
63309 1 61.2122 60.3594 63.147 0.5991797232
63290 1 50.4698 63.6058 63.5252 2.6445668626
73632 1 55.835 61.9841 63.3236 2.8204461916
55753 1 59.4331 62.0748 63.3076 1.9853971993
63421 1 52.1514 65.4453 63.2813 2.8583940335
56229 1 62.8275 65.7032 63.0182 2.2469834966
67283 1 70.2825 66.598 63.6807 2.5743744843
67047 1 72.1634 64.7597 63.6817 2.9453631143
67159 1 65.0672 68.0776 63.952 2.9358347013
70763 1 68.4429 68.3909 63.785 2.6799752523
65948 1 59.9153 37.1083 65.3825 2.990674416
62834 1 60.1335 40.887 65.4307 0.7297363236
66072 1 61.6788 38.9799 65.3594 0.8588533953
77108 1 62.4239 41.1112 64.7888 0.6873729612
77115 1 63.2923 38.915 67.0688 1.4606378642
77114 1 64.5579 40.9118 66.6056 2.6253613639
66307 1 59.136 43.3505 65.7002 1.6785676608
70026 1 62.6049 42.4181 66.767 1.0818156885
66070 1 64.225 42.8152 64.9069 2.6605770867
77341 1 54.0357 44.7881 65.8818 2.7092777303
59708 1 57.3081 45.0476 65.8011 2.9196559498
62819 1 60.2626 45.8683 65.1924 2.4080743162
59587 1 62.2077 44.3209 65.0497 1.1859665558
66554 1 62.1101 45.9875 66.9041 2.5182439879
69900 1 52.1963 46.4983 65.7122 1.4471593649
69787 1 55.4186 47.0209 65.557 0.7930967052
73747 1 54.4814 49.2506 66.7446 1.3973528467
70390 1 58.3428 47.3372 65.1344 1.1352139779
59097 1 52.5075 49.537 65.3249 2.076630912
77694 1 54.2498 51.3875 65.2094 1.2523777346
59218 1 56.2592 51.1716 66.548 1.0063811259
77598 1 58.1922 51.2559 65.0659 0.9674195029
70030 1 60.0627 49.5439 64.9866 2.3404733574
62587 1 59.9832 51.1813 66.8238 2.6589189951
66545 1 52.4424 53.2199 65.2216 2.5399444193
74122 1 55.9875 53.0843 65.0946 0.8441741801
73996 1 58.0086 53.0163 66.7513 0.2466408823
70165 1 59.6933 53.1319 65.0675 2.102992578
73882 1 61.6165 53.1696 66.7571 2.5257302791
63413 1 48.6189 54.7112 66.9407 2.605861686
66908 1 50.6413 54.7998 65.3212 2.9454120859
73741 1 52.422 54.9647 67.1795 0.5914403613
63667 1 54.2892 54.9122 65.1107 1.0264704988
67150 1 56.0504 56.7371 64.9687 0.8051677297
84893 1 54.4044 56.6738 66.8528 0.2662814937
70035 1 57.8472 54.971 65.0802 0.2406853025
73743 1 61.4802 55.0143 65.1052 2.4587190617
70036 1 59.8702 55.0028 66.7994 0.4113485614
70126 1 48.6217 58.3608 66.9913 2.9074543836
85130 1 50.3997 56.5221 66.9277 1.2039691453
77583 1 52.3596 56.4906 65.116 2.5519047682
66903 1 54.1767 58.4047 65.1439 2.5224701041
70040 1 56.0809 58.3836 66.813 1.0229160177
73640 1 57.8652 58.5388 64.8949 0.5642549572
70628 1 59.5944 56.708 65.1278 0.4444708774
73867 1 61.3924 56.8344 66.8432 1.9951947298
63668 1 61.3251 58.4996 65.0098 1.1377529097
70742 1 59.596 58.5818 66.8436 1.044369631
73990 1 50.4808 60.0551 66.988 2.9652088971
70490 1 55.9584 60.2303 65.2112 2.7487070789
66914 1 54.1887 60.0876 66.9961 2.9908145855
77841 1 57.7036 60.2613 66.9938 2.1508028365
67041 1 59.4367 60.3171 65.0188 1.0527601462
67040 1 62.99 60.4603 64.9153 2.6986429161
66897 1 57.5967 62.0032 64.9617 2.8636435716
63546 1 61.1064 62.2652 64.993 2.7898049746
59951 1 61.1267 64.095 66.8314 1.3342988612
67156 1 62.9493 62.3181 66.7752 2.333982124
74235 1 62.8594 64.0219 64.8633 0.924656483
63553 1 64.696 64.1698 66.5831 1.3614687621
70522 1 68.1591 64.0878 66.5758 2.4969977923
66924 1 70.1476 62.5491 66.565 2.6308245575
74242 1 72.2161 62.8493 65.3233 2.7384324386
63080 1 59.2553 65.7744 66.6702 2.8519660758
66916 1 60.9775 65.719 64.8728 1.3369077099
70875 1 64.5408 65.8406 64.6056 1.3717676784
67273 1 66.3806 65.9595 66.4423 2.2782007735
67153 1 68.7652 66.4206 65.7347 0.761277111
67044 1 70.3576 64.682 65.4332 1.1283206557
74361 1 72.0309 66.5805 65.3109 1.2246190847
74359 1 73.9805 64.7608 65.2569 2.8740685068
67395 1 61.0 67.585 66.4512 1.2957109049
56475 1 62.607 67.6439 64.5269 1.0486041257
70872 1 62.622 69.3887 66.4309 2.2983222408
70644 1 64.4626 67.6539 66.4745 1.2950021873
77830 1 66.9121 68.1003 65.6746 1.2996129327
74474 1 70.1351 68.2533 65.4109 0.9247325485
70885 1 72.0495 68.4101 66.9886 1.2320629679
74352 1 66.8025 69.8966 67.3532 1.1274769365
60080 1 68.5557 70.0313 65.4994 1.5121085256
67164 1 70.3372 70.1394 67.0742 1.312576049
69907 1 61.6581 37.111 67.1209 2.4234207515
69676 1 60.0146 38.9696 67.0311 1.1670497384
66553 1 59.4927 39.5935 69.4843 2.3747473711
80710 1 61.5766 38.7449 68.9051 1.1863157855
66184 1 63.246 40.5887 68.8843 1.061567507
70032 1 59.5145 41.4361 67.6788 1.5962219177
73268 1 61.3657 42.1737 68.9068 1.3330531637
62718 1 64.4247 42.6006 68.4994 2.9387304166
73625 1 60.8556 43.9166 67.1672 1.1770278626
73399 1 62.6889 44.2653 68.7157 2.9794549001
66302 1 64.1514 46.2163 68.507 2.7303767229
67144 1 52.1122 48.3584 67.3651 2.9213188814
73378 1 53.817 46.7333 67.506 2.6052976024
73506 1 57.0654 47.1372 67.1655 1.2773863395
70271 1 54.49 51.0607 68.3334 2.1477396335
70155 1 58.3013 49.252 66.7633 1.1397528424
69785 1 56.5353 49.3002 68.4555 2.4330118892
70395 1 58.125 51.2943 68.4375 1.8623194695
49144 1 50.5268 53.0924 66.8935 2.7550722712
81191 1 52.4483 51.24 66.9022 2.7553615397
81292 1 52.5322 52.9573 68.532 0.7467153884
70272 1 54.3102 53.14 66.9545 0.4012421202
77839 1 56.2067 53.0931 68.4793 0.0237598066
73884 1 59.8602 53.0417 68.5299 0.8785111813
55504 1 50.4972 54.6948 68.5697 1.1926817257
85037 1 56.1228 56.5629 68.572 0.3923223541
67035 1 61.527 54.9193 68.6381 1.881522283
70375 1 48.604 56.4461 68.6004 2.1405527752
67131 1 50.613 58.2557 68.6451 0.7253181197
66890 1 52.3578 58.2638 66.8477 1.3991949534
77953 1 54.234 58.3431 68.6563 1.1051462635
74347 1 57.8127 58.3813 68.5737 0.2258059898
66568 1 59.5702 56.6394 68.6735 0.0044612286
74231 1 61.3516 58.6339 68.5239 2.6056539893
74236 1 52.3083 60.2052 68.6896 2.5958088118
81319 1 56.0283 60.1357 68.7542 2.5858932017
73739 1 59.4823 60.3149 68.6545 2.600612041
67149 1 62.9927 64.154 68.549 0.9789103078
70406 1 71.9911 62.832 68.3435 2.7256125394
74350 1 61.1927 65.8881 68.3698 1.2780169374
74471 1 64.7341 66.021 68.2813 1.3671673221
70877 1 68.2782 66.2127 68.2092 1.0368723803
74238 1 70.0506 64.5116 68.2999 1.5117144528
74244 1 71.9446 66.4021 68.4006 1.1673985442
63425 1 72.1053 64.5871 66.8831 0.6995390114
81320 1 73.8688 66.4799 66.9151 2.3549799977
63444 1 73.7507 64.5893 68.5847 2.7940687404
63676 1 62.7371 67.6092 68.3053 0.8929107809
67154 1 66.4145 67.8156 68.2071 1.2556972909
67391 1 64.4091 69.3786 68.1786 2.8976102753
78080 1 70.006 68.0574 68.4101 0.9431473804
67274 1 68.3333 71.8617 67.0678 2.0218893104
67280 1 68.6234 70.089 68.9014 1.34632771
70760 1 70.2952 71.8979 68.7125 2.5841206152
71007 1 75.56 73.5407 68.6846 2.8340915941
74829 1 61.666 80.8424 68.7979 2.6210987971
62955 1 61.4392 40.3506 70.6597 2.1637020708
73390 1 63.3665 38.8753 70.6985 2.9574570359
77109 1 63.0394 42.3641 70.6503 2.8851245797
77110 1 66.2568 42.7345 70.3265 2.9194094516
69789 1 62.489 45.9947 70.4947 1.3962484469
70279 1 64.4438 44.3582 70.3874 0.9321834824
73614 1 65.9627 46.3833 70.3737 1.352280183
77116 1 67.7149 46.3911 72.029 2.7154748201
77360 1 64.0279 47.9892 70.292 0.9649977988
73512 1 62.3833 47.9013 72.0486 1.289874302
80708 1 65.9185 48.1254 72.0552 1.2863053614
73997 1 53.9676 50.5934 70.6359 2.9948917102
70255 1 56.3904 51.2349 70.1267 2.3620062259
73524 1 60.145 51.3754 70.27 2.7803787151
77715 1 63.8353 49.7848 72.0267 2.2416022087
73641 1 65.6073 49.9232 70.2638 2.9723820129
88138 1 52.1241 52.0505 70.7602 2.6755217749
77343 1 54.5545 53.0183 70.2115 0.8922205661
77477 1 56.4641 53.1079 72.0804 2.3365992947
84674 1 58.1528 53.0092 70.2418 0.8524079857
74109 1 61.73 53.3013 70.3805 2.6671146107
70280 1 52.681 54.7767 70.1818 0.5697029987
85155 1 56.2463 54.837 70.3184 0.0689161544
77585 1 54.3744 54.7793 72.0634 1.9010872204
81313 1 59.7826 54.9453 70.4011 0.5897146116
70282 1 61.6971 55.0573 72.1542 2.9153746373
77486 1 72.3771 55.5959 71.861 2.9430892503
74338 1 48.7515 58.2836 70.367 2.9199899055
81070 1 50.7343 56.4639 70.2745 1.339162572
63308 1 52.4135 58.2424 70.4818 1.3120927271
81551 1 54.3859 56.5656 70.4327 0.7530260127
73862 1 56.1433 58.3156 70.3748 1.0681352886